TITLE = "Vortex Convect"
VARIABLES = "X", "Y", "u", "v"
ZONE T="BIG ZONE", I=400, J=100, DATAPACKING=POINT
0.0 0.0 0.2770612835884094 0.00011955903755733743
0.010025062656641603 0.0 0.9598592519760132 -0.0005249181995168328
0.020050125313283207 0.0 0.9644041657447815 -0.00040337842074222863
0.03007518796992481 0.0 0.9704952239990234 -0.00030034591327421367
0.040100250626566414 0.0 0.9777147173881531 -0.00021689190180040896
0.05012531328320802 0.0 0.9854263067245483 -0.00014991321950219572
0.06015037593984962 0.0 0.9928668737411499 -9.402000432601199e-05
0.07017543859649122 0.0 0.9992706179618835 -4.369750604382716e-05
0.08020050125313283 0.0 1.0040028095245361 5.049897481512744e-06
0.09022556390977443 0.0 1.006676197052002 5.386086195358075e-05
0.10025062656641603 0.0 1.00722336769104 0.00010212072083959356
0.11027568922305764 0.0 1.0059022903442383 0.00014764259685762227
0.12030075187969924 0.0 1.003227949142456 0.00018748492584563792
0.13032581453634084 0.0 0.9998487830162048 0.0002184752665925771
0.14035087719298245 0.0 0.9964079260826111 0.00023733792477287352
0.15037593984962405 0.0 0.9934309124946594 0.0002406058192718774
0.16040100250626566 0.0 0.9912662506103516 0.00022469021496362984
0.17042606516290726 0.0 0.9900777339935303 0.00018631669809110463
0.18045112781954886 0.0 0.9898725748062134 0.00012325731222517788
0.19047619047619047 0.0 0.9905455708503723 3.510984606691636e-05
0.20050125313283207 0.0 0.9919248819351196 -7.617272058269009e-05
0.21052631578947367 0.0 0.9938092231750488 -0.00020619030692614615
0.22055137844611528 0.0 0.9959933757781982 -0.0003484792250674218
0.23057644110275688 0.0 0.9982805848121643 -0.0004952927702106535
0.24060150375939848 0.0 1.0004873275756836 -0.0006386227323673666
0.2506265664160401 0.0 1.0024443864822388 -0.0007712981896474957
0.2606516290726817 0.0 1.0040018558502197 -0.0008880093810148537
0.2706766917293233 0.0 1.005042552947998 -0.000986094819381833
0.2807017543859649 0.0 1.005500078201294 -0.0010659206891432405
0.2907268170426065 0.0 1.0053775310516357 -0.0011306633241474628
0.3007518796992481 0.0 1.0047571659088135 -0.001185403554700315
0.3107769423558897 0.0 1.0037938356399536 -0.001235641655512154
0.3208020050125313 0.0 1.0026929378509521 -0.001285563805140555
0.3308270676691729 0.0 1.0016776323318481 -0.0013364764163270593
0.3408521303258145 0.0 1.0009512901306152 -0.0013858559541404247
0.3508771929824561 0.0 1.0006651878356934 -0.0014272575499489903
0.3609022556390977 0.0 1.0008958578109741 -0.0014511620393022895
0.37092731829573933 0.0 1.0016353130340576 -0.0014465816784650087
0.38095238095238093 0.0 1.0027984380722046 -0.001403081463649869
0.39097744360902253 0.0 1.0042407512664795 -0.001312792650423944
0.40100250626566414 0.0 1.0057871341705322 -0.001171980518847704
0.41102756892230574 0.0 1.0072627067565918 -0.0009819415863603354
0.42105263157894735 0.0 1.0085200071334839 -0.000749112747143954
0.43107769423558895 0.0 1.009458065032959 -0.00048449335736222565
0.44110275689223055 0.0 1.0100301504135132 -0.00020247322390787303
0.45112781954887216 0.0 1.0102415084838867 8.075676305452362e-05
0.46115288220551376 0.0 1.0101392269134521 0.000349034700775519
0.47117794486215536 0.0 1.0097978115081787 0.0005880452808924019
0.48120300751879697 0.0 1.009304165840149 0.0007868736865930259
0.49122807017543857 0.0 1.0087416172027588 0.0009389957995153964
0.5012531328320802 0.0 1.0081779956817627 0.0010426342487335205
0.5112781954887218 0.0 1.0076565742492676 0.0011004391126334667
0.5213032581453634 0.0 1.0071924924850464 0.001118634594604373
0.531328320802005 0.0 1.0067756175994873 0.0011058442760258913
0.5413533834586466 0.0 1.0063775777816772 0.0010717713739722967
0.5513784461152882 0.0 1.0059632062911987 0.0010259198024868965
0.5614035087719298 0.0 1.0055017471313477 0.0009765017894096673
0.5714285714285714 0.0 1.004976749420166 0.0009296304197050631
0.581453634085213 0.0 1.004392147064209 0.0008888862212188542
0.5914786967418546 0.0 1.0037727355957031 0.0008552614017389715
0.6015037593984962 0.0 1.0031596422195435 0.0008274968131445348
0.6115288220551378 0.0 1.0026013851165771 0.0008026767172850668
0.6215538847117794 0.0 1.0021421909332275 0.00077700155088678
0.631578947368421 0.0 1.0018113851547241 0.0007465595263056457
0.6416040100250626 0.0 1.0016160011291504 0.0007080169743858278
0.6516290726817042 0.0 1.001538872718811 0.0006591363926418126
0.6616541353383458 0.0 1.001543402671814 0.0005991195212118328
0.6716791979949874 0.0 1.0015830993652344 0.0005287620588205755
0.681704260651629 0.0 1.0016131401062012 0.0004504041571635753
0.6917293233082706 0.0 1.0016006231307983 0.000367675005691126
0.7017543859649122 0.0 1.0015308856964111 0.00028503386420197785
0.7117794486215538 0.0 1.0014079809188843 0.00020715422579087317
0.7218045112781954 0.0 1.0012506246566772 0.00013826429494656622
0.731829573934837 0.0 1.0010852813720703 8.156293915817514e-05
0.7418546365914787 0.0 1.000938892364502 3.88304797525052e-05
0.7518796992481203 0.0 1.000833511352539 1.0293476407241542e-05
0.7619047619047619 0.0 1.000784158706665 -5.2413333833101206e-06
0.7719298245614035 0.0 1.0007984638214111 -1.0076876606035512e-05
0.7819548872180451 0.0 1.0008773803710938 -7.17871716915397e-06
0.7919799498746867 0.0 1.0010164976119995 2.78149798305094e-07
0.8020050125313283 0.0 1.0012060403823853 9.319662240159232e-06
0.8120300751879699 0.0 1.0014296770095825 1.7502727132523432e-05
0.8220551378446115 0.0 1.0016639232635498 2.3127799067879096e-05
0.8320802005012531 0.0 1.0018786191940308 2.53437647188548e-05
0.8421052631578947 0.0 1.0020395517349243 2.4129320081556216e-05
0.8521303258145363 0.0 1.0021135807037354 2.016444705077447e-05
0.8621553884711779 0.0 1.0020751953125 1.4588386875402648e-05
0.8721804511278195 0.0 1.0019134283065796 8.716165211808402e-06
0.8822055137844611 0.0 1.0016355514526367 3.7396430343505926e-06
0.8922305764411027 0.0 1.0012667179107666 4.916554985356925e-07
0.9022556390977443 0.0 1.000846028327942 -6.992732437538507e-07
0.9122807017543859 0.0 1.0004193782806396 -4.9210100883101404e-08
0.9223057644110275 0.0 1.000030517578125 1.7505707319287467e-06
0.9323308270676691 0.0 0.9997155070304871 3.6682804420706816e-06
0.9423558897243107 0.0 0.9994977116584778 4.540813279163558e-06
0.9523809523809523 0.0 0.9993880391120911 3.2973812267300673e-06
0.9624060150375939 0.0 0.9993866086006165 -8.302404808091524e-07
0.9724310776942355 0.0 0.9994859099388123 -8.12785128800897e-06
0.9824561403508771 0.0 0.9996742010116577 -1.8299757357453927e-05
0.9924812030075187 0.0 0.9999369978904724 -3.045363337150775e-05
1.0025062656641603 0.0 1.0002578496932983 -4.318900391808711e-05
1.012531328320802 0.0 1.0006179809570312 -5.4752188589191064e-05
1.0225563909774436 0.0 1.00099515914917 -6.326854781946167e-05
1.0325814536340852 0.0 1.0013645887374878 -6.700373342027888e-05
1.0426065162907268 0.0 1.0016999244689941 -6.462094461312518e-05
1.0526315789473684 0.0 1.001975417137146 -5.540679194382392e-05
1.06265664160401 0.0 1.0021700859069824 -3.942145485780202e-05
1.0726817042606516 0.0 1.0022695064544678 -1.7539798136567697e-05
1.0827067669172932 0.0 1.002268671989441 8.613254067313392e-06
1.0927318295739348 0.0 1.0021719932556152 3.685176852741279e-05
1.1027568922305764 0.0 1.0019919872283936 6.470029620686546e-05
1.112781954887218 0.0 1.0017468929290771 8.97134086699225e-05
1.1228070175438596 0.0 1.0014578104019165 0.00010978131467709318
1.1328320802005012 0.0 1.001146674156189 0.00012338001397438347
1.1428571428571428 0.0 1.000834345817566 0.00012971661635674536
1.1528822055137844 0.0 1.0005401372909546 0.00012876282562501729
1.162907268170426 0.0 1.0002816915512085 0.00012117243750253692
1.1729323308270676 0.0 1.000073790550232 0.00010812693653861061
1.1829573934837092 0.0 0.9999285936355591 9.11405441001989e-05
1.1929824561403508 0.0 0.9998537302017212 7.185622962424532e-05
1.2030075187969924 0.0 0.999852180480957 5.1881219405913725e-05
1.213032581453634 0.0 0.9999218583106995 3.2651270885253325e-05
1.2230576441102756 0.0 1.0000559091567993 1.5347181033575907e-05
1.2330827067669172 0.0 1.0002435445785522 8.463729841423628e-07
1.2431077694235588 0.0 1.0004709959030151 -1.0306214790034574e-05
1.2531328320802004 0.0 1.000722885131836 -1.7883223335957155e-05
1.263157894736842 0.0 1.0009827613830566 -2.1958341676509008e-05
1.2731829573934836 0.0 1.0012342929840088 -2.285951268277131e-05
1.2832080200501252 0.0 1.0014621019363403 -2.1117473806953058e-05
1.2932330827067668 0.0 1.0016522407531738 -1.7403825040673837e-05
1.3032581453634084 0.0 1.0017935037612915 -1.2463274288165849e-05
1.31328320802005 0.0 1.0018774271011353 -7.058576557028573e-06
1.3233082706766917 0.0 1.0018996000289917 -1.9127865016344003e-06
1.3333333333333333 0.0 1.0018590688705444 2.3488291844842024e-06
1.3433583959899749 0.0 1.00175940990448 5.2580480769393034e-06
1.3533834586466165 0.0 1.0016069412231445 6.552120794367511e-06
1.363408521303258 0.0 1.0014115571975708 6.2347726270672865e-06
1.3734335839598997 0.0 1.0011849403381348 4.592734512698371e-06
1.3834586466165413 0.0 1.0009398460388184 2.190970008086879e-06
1.3934837092731829 0.0 1.0006905794143677 -1.815743218003263e-07
1.4035087719298245 0.0 1.0004512071609497 -1.6097575326057267e-06
1.413533834586466 0.0 1.0002361536026 -1.1946204949708772e-06
1.4235588972431077 0.0 1.0000590085983276 1.7922474171427893e-06
1.4335839598997493 0.0 0.9999316334724426 7.752129931759555e-06
1.443609022556391 0.0 0.9998634457588196 1.6647423763060942e-05
1.4536340852130325 0.0 0.9998597502708435 2.7938778657699004e-05
1.463659147869674 0.0 0.9999210238456726 4.060674473294057e-05
1.4736842105263157 0.0 1.0000427961349487 5.326132304617204e-05
1.4837092731829573 0.0 1.000216007232666 6.431612564483657e-05
1.493734335839599 0.0 1.0004279613494873 7.220442785182968e-05
1.5037593984962405 0.0 1.0006647109985352 7.56021254346706e-05
1.5137844611528821 0.0 1.0009125471115112 7.361677853623405e-05
1.5238095238095237 0.0 1.00115966796875 6.590729026356712e-05
1.5338345864661653 0.0 1.0013974905014038 5.2727791626239195e-05
1.543859649122807 0.0 1.0016201734542847 3.489075243123807e-05
1.5538847117794485 0.0 1.0018244981765747 1.3664747712027747e-05
1.5639097744360901 0.0 1.0020085573196411 -9.373728062200826e-06
1.5739348370927317 0.0 1.002170443534851 -3.252431270084344e-05
1.5839598997493733 0.0 1.0023070573806763 -5.413681719801389e-05
1.593984962406015 0.0 1.0024139881134033 -7.27794467820786e-05
1.6040100250626566 0.0 1.0024850368499756 -8.738072210690007e-05
1.6140350877192982 0.0 1.0025136470794678 -9.731362661113963e-05
1.6240601503759398 0.0 1.00249445438385 -0.00010242693679174408
1.6340852130325814 0.0 1.0024237632751465 -0.00010302275040885434
1.644110275689223 0.0 1.0023021697998047 -9.977301670005545e-05
1.6541353383458646 0.0 1.0021347999572754 -9.35999778448604e-05
1.6641604010025062 0.0 1.001932144165039 -8.553297811886296e-05
1.6741854636591478 0.0 1.001709222793579 -7.659193215658888e-05
1.6842105263157894 0.0 1.0014845132827759 -6.76698618917726e-05
1.694235588972431 0.0 1.0012779235839844 -5.947678801021539e-05
1.7042606516290726 0.0 1.0011087656021118 -5.252015762380324e-05
1.7142857142857142 0.0 1.000993251800537 -4.712570444098674e-05
1.7243107769423558 0.0 1.0009429454803467 -4.347410504124127e-05
1.7343358395989974 0.0 1.0009630918502808 -4.1646850149845704e-05
1.744360902255639 0.0 1.001051902770996 -4.1663148294901475e-05
1.7543859649122806 0.0 1.0012012720108032 -4.349133450887166e-05
1.7644110275689222 0.0 1.0013972520828247 -4.7030476707732305e-05
1.7744360902255638 0.0 1.0016217231750488 -5.2089420933043584e-05
1.7844611528822054 0.0 1.0018553733825684 -5.835209958604537e-05
1.794486215538847 0.0 1.0020787715911865 -6.535377906402573e-05
1.8045112781954886 0.0 1.0022754669189453 -7.248445035656914e-05
1.8145363408521302 0.0 1.0024327039718628 -7.903106597950682e-05
1.8245614035087718 0.0 1.002542495727539 -8.423366671195254e-05
1.8345864661654134 0.0 1.0026018619537354 -8.737129246583208e-05
1.844611528822055 0.0 1.002611756324768 -8.785790851106867e-05
1.8546365914786966 0.0 1.0025763511657715 -8.531435014447197e-05
1.8646616541353382 0.0 1.0025018453598022 -7.961931260069832e-05
1.8746867167919798 0.0 1.0023951530456543 -7.094113243510947e-05
1.8847117794486214 0.0 1.0022635459899902 -5.970647544017993e-05
1.894736842105263 0.0 1.0021146535873413 -4.6550379920518026e-05
1.9047619047619047 0.0 1.0019559860229492 -3.2253996323561296e-05
1.9147869674185463 0.0 1.0017956495285034 -1.763886757544242e-05
1.9248120300751879 0.0 1.0016429424285889 -3.500691491353791e-06
1.9348370927318295 0.0 1.0015077590942383 9.457032319915015e-06
1.944862155388471 0.0 1.0014008283615112 2.066992237814702e-05
1.9548872180451127 0.0 1.0013327598571777 2.9708291549468413e-05
1.9649122807017543 0.0 1.0013130903244019 3.6271903809392825e-05
1.9749373433583959 0.0 1.0013487339019775 4.0162503864848986e-05
1.9849624060150375 0.0 1.0014426708221436 4.125354826101102e-05
1.994987468671679 0.0 1.0015928745269775 3.9477050449931994e-05
2.0050125313283207 0.0 1.0017915964126587 3.4840810258174315e-05
2.015037593984962 0.0 1.0020253658294678 2.7445643354440108e-05
2.025062656641604 0.0 1.0022755861282349 1.754649929353036e-05
2.0350877192982457 0.0 1.0025204420089722 5.598446477961261e-06
2.045112781954887 0.0 1.0027369260787964 -7.72447219787864e-06
2.0551378446115285 0.0 1.0029032230377197 -2.1514799300348386e-05
2.0651629072681703 0.0 1.003001093864441 -3.468987051746808e-05
2.075187969924812 0.0 1.0030183792114258 -4.609403185895644e-05
2.0852130325814535 0.0 1.0029500722885132 -5.4617728892480955e-05
2.095238095238095 0.0 1.002799391746521 -5.9353853430366144e-05
2.1052631578947367 0.0 1.0025771856307983 -5.973988663754426e-05
2.1152882205513786 0.0 1.0023001432418823 -5.5645094107603654e-05
2.12531328320802 0.0 1.001989722251892 -4.7422796342289075e-05
2.1353383458646613 0.0 1.0016692876815796 -3.5878470953321084e-05
2.145363408521303 0.0 1.001361608505249 -2.2180229279911146e-05
2.155388471177945 0.0 1.0010870695114136 -7.730060133326333e-06
2.1654135338345863 0.0 1.0008621215820312 6.0062493503210135e-06
2.1754385964912277 0.0 1.0006988048553467 1.7658840079093352e-05
2.1854636591478696 0.0 1.0006039142608643 2.609231523820199e-05
2.1954887218045114 0.0 1.0005799531936646 3.0508414056384936e-05
2.2055137844611528 0.0 1.0006252527236938 3.0506551411235705e-05
2.215538847117794 0.0 1.0007352828979492 2.6068333681905642e-05
2.225563909774436 0.0 1.0009026527404785 1.7510294128442183e-05
2.235588972431078 0.0 1.0011181831359863 5.414859515440185e-06
2.245614035087719 0.0 1.0013705492019653 -9.485836017120164e-06
2.2556390977443606 0.0 1.001646637916565 -2.6384219381725416e-05
2.2656641604010024 0.0 1.001932144165039 -4.4470969442045316e-05
2.275689223057644 0.0 1.0022112131118774 -6.296738138189539e-05
2.2857142857142856 0.0 1.0024678707122803 -8.112735667964444e-05
2.295739348370927 0.0 1.0026863813400269 -9.823365689953789e-05
2.305764411027569 0.0 1.0028530359268188 -0.00011357626499375328
2.3157894736842106 0.0 1.0029572248458862 -0.0001264501188416034
2.325814536340852 0.0 1.0029927492141724 -0.00013618750381283462
2.3358395989974934 0.0 1.0029584169387817 -0.00014220431330613792
2.345864661654135 0.0 1.0028587579727173 -0.0001440773776266724
2.355889724310777 0.0 1.0027035474777222 -0.0001416195009369403
2.3659147869674184 0.0 1.0025066137313843 -0.0001349568774458021
2.37593984962406 0.0 1.0022844076156616 -0.00012455382966436446
2.3859649122807016 0.0 1.0020545721054077 -0.00011120895942440256
2.3959899749373434 0.0 1.0018341541290283 -9.599219629308209e-05
2.406015037593985 0.0 1.0016376972198486 -8.01322385086678e-05
2.416040100250626 0.0 1.0014773607254028 -6.489230872830376e-05
2.426065162907268 0.0 1.0013614892959595 -5.141851943335496e-05
2.43609022556391 0.0 1.0012953281402588 -4.0628914575790986e-05
2.4461152882205512 0.0 1.0012811422348022 -3.312466651550494e-05
2.4561403508771926 0.0 1.0013188123703003 -2.9165148589527234e-05
2.4661654135338344 0.0 1.0014065504074097 -2.8680511604761705e-05
2.4761904761904763 0.0 1.0015405416488647 -3.134386133751832e-05
2.4862155388471177 0.0 1.001715064048767 -3.6651003028964624e-05
2.496240601503759 0.0 1.0019232034683228 -4.4013340811943635e-05
2.506265664160401 0.0 1.0021551847457886 -5.284390863380395e-05
2.5162907268170427 0.0 1.002399206161499 -6.26009059487842e-05
2.526315789473684 0.0 1.0026410818099976 -7.281495345523581e-05
2.5363408521303255 0.0 1.0028650760650635 -8.307789539685473e-05
2.5463659147869673 0.0 1.0030547380447388 -9.301324462285265e-05
2.556390977443609 0.0 1.003193974494934 -0.00010224800644209608
2.5664160401002505 0.0 1.0032696723937988 -0.0001103744943975471
2.576441102756892 0.0 1.0032719373703003 -0.0001169570823549293
2.5864661654135337 0.0 1.0031965970993042 -0.00012154291471233591
2.5964912280701755 0.0 1.0030455589294434 -0.00012371104094199836
2.606516290726817 0.0 1.0028271675109863 -0.00012313321349211037
2.6165413533834583 0.0 1.0025548934936523 -0.00011964557779720053
2.6265664160401 0.0 1.0022467374801636 -0.00011329873086651787
2.636591478696742 0.0 1.0019232034683228 -0.00010438422759762034
2.6466165413533833 0.0 1.001604676246643 -9.343001147499308e-05
2.6566416040100247 0.0 1.0013104677200317 -8.114761294564232e-05
2.6666666666666665 0.0 1.0010567903518677 -6.836171814939007e-05
2.6766917293233083 0.0 1.000855565071106 -5.591878652921878e-05
2.6867167919799497 0.0 1.000714898109436 -4.4607058953261e-05
2.696741854636591 0.0 1.0006386041641235 -3.5089640732621774e-05
2.706766917293233 0.0 1.000626802444458 -2.786676850519143e-05
2.7167919799498748 0.0 1.0006769895553589 -2.3271855752682313e-05
2.726817042606516 0.0 1.0007842779159546 -2.148429848602973e-05
2.7368421052631575 0.0 1.0009422302246094 -2.2552758309757337e-05
2.7468671679197993 0.0 1.0011425018310547 -2.6418678316986188e-05
2.756892230576441 0.0 1.0013753175735474 -3.2929554436123e-05
2.7669172932330826 0.0 1.0016288757324219 -4.182810880593024e-05
2.776942355889724 0.0 1.0018894672393799 -5.274507202557288e-05
2.7869674185463658 0.0 1.0021414756774902 -6.515796849271283e-05
2.7969924812030076 0.0 1.002368450164795 -7.839287718525156e-05
2.807017543859649 0.0 1.002553939819336 -9.161777416011319e-05
2.8170426065162903 0.0 1.0026832818984985 -0.000103890044556465
2.827067669172932 0.0 1.002745270729065 -0.00011422318493714556
2.837092731829574 0.0 1.0027340650558472 -0.00012169920228188857
2.8471177944862154 0.0 1.0026499032974243 -0.00012559405877254903
2.8571428571428568 0.0 1.0024999380111694 -0.00012549050734378397
2.8671679197994986 0.0 1.002296805381775 -0.00012138231977587566
2.8771929824561404 0.0 1.0020577907562256 -0.00011370408901711926
2.887218045112782 0.0 1.0018019676208496 -0.0001033078515320085
2.897243107769423 0.0 1.001548171043396 -9.135909931501374e-05
2.907268170426065 0.0 1.0013130903244019 -7.917949551483616e-05
2.917293233082707 0.0 1.0011096000671387 -6.805962038924918e-05
2.927318295739348 0.0 1.000947117805481 -5.908202365390025e-05
2.9373433583959896 0.0 1.000831127166748 -5.299198892316781e-05
2.9473684210526314 0.0 1.0007649660110474 -5.014016278437339e-05
2.9573934837092732 0.0 1.0007497072219849 -5.0497674237703905e-05
2.9674185463659146 0.0 1.0007858276367188 -5.374275133362971e-05
2.977443609022556 0.0 1.0008724927902222 -5.937271271250211e-05
2.987468671679198 0.0 1.0010079145431519 -6.68395878165029e-05
2.9974937343358397 0.0 1.0011883974075317 -7.564128463855013e-05
3.007518796992481 0.0 1.0014077425003052 -8.537558460375294e-05
3.0175438596491224 0.0 1.0016566514968872 -9.574353316565976e-05
3.0275689223057642 0.0 1.0019222497940063 -0.00010650554759195074
3.037593984962406 0.0 1.002188801765442 -0.00011740155605366454
3.0476190476190474 0.0 1.002437710762024 -0.0001280657888855785
3.057644110275689 0.0 1.0026496648788452 -0.0001379603345412761
3.0676691729323307 0.0 1.0028055906295776 -0.0001463292574044317
3.0776942355889725 0.0 1.0028899908065796 -0.0001522064267192036
3.087719298245614 0.0 1.0028923749923706 -0.0001544924743939191
3.0977443609022552 0.0 1.0028094053268433 -0.00015208384138531983
3.107769423558897 0.0 1.0026462078094482 -0.00014406474656425416
3.117794486215539 0.0 1.0024166107177734 -0.00012991882977075875
3.1278195488721803 0.0 1.0021424293518066 -0.00010972291784128174
3.1378446115288217 0.0 1.0018517971038818 -8.427010470768437e-05
3.1478696741854635 0.0 1.001575231552124 -5.506976958713494e-05
3.1578947368421053 0.0 1.0013418197631836 -2.4210628907894716e-05
3.1679197994987467 0.0 1.0011749267578125 5.917540875088889e-06
3.177944862155388 0.0 1.001088261604309 3.2955929782474414e-05
3.18796992481203 0.0 1.0010838508605957 5.4913605708861724e-05
3.1979949874686717 0.0 1.0011523962020874 7.041919889161363e-05
3.208020050125313 0.0 1.0012762546539307 7.880831981310621e-05
3.2180451127819545 0.0 1.0014333724975586 8.009505836525932e-05
3.2280701754385963 0.0 1.0016030073165894 7.481282955268398e-05
3.238095238095238 0.0 1.0017696619033813 6.382066203514114e-05
3.2481203007518795 0.0 1.0019257068634033 4.8138001147890463e-05
3.258145363408521 0.0 1.0020716190338135 2.8840764571214095e-05
3.2681704260651627 0.0 1.0022141933441162 7.034196642052848e-06
3.2781954887218046 0.0 1.0023632049560547 -1.611580591998063e-05
3.288220551378446 0.0 1.0025273561477661 -3.9348346035694703e-05
3.2982456140350873 0.0 1.0027111768722534 -6.129903340479359e-05
3.308270676691729 0.0 1.002911925315857 -8.055901707848534e-05
3.318295739348371 0.0 1.0031195878982544 -9.577030868967995e-05
3.3283208020050123 0.0 1.0033172369003296 -0.00010576246859272942
3.3383458646616537 0.0 1.003483772277832 -0.00010968182323267683
3.3483709273182956 0.0 1.0035967826843262 -0.0001070866928785108
3.3583959899749374 0.0 1.0036354064941406 -9.80145632638596e-05
3.3684210526315788 0.0 1.003583550453186 -8.303575305035338e-05
3.37844611528822 0.0 1.0034319162368774 -6.329485768219456e-05
3.388471177944862 0.0 1.0031803846359253 -4.052542135468684e-05
3.398496240601504 0.0 1.0028403997421265 -1.701476503512822e-05
3.408521303258145 0.0 1.002436637878418 4.545120646071155e-06
3.4185463659147866 0.0 1.002007007598877 2.134338501491584e-05
3.4285714285714284 0.0 1.0016002655029297 3.08821072394494e-05
3.43859649122807 0.0 1.0012701749801636 3.1468141969526187e-05
3.4486215538847116 0.0 1.0010666847229004 2.2625001292908564e-05
3.458646616541353 0.0 1.0010254383087158 5.291110028338153e-06
3.468671679197995 0.0 1.0011602640151978 -1.829929169616662e-05
3.4786967418546366 0.0 1.001459002494812 -4.506887853494845e-05
3.488721804511278 0.0 1.0018844604492188 -7.17490547685884e-05
3.4987468671679194 0.0 1.0023820400238037 -9.55487703322433e-05
3.508771929824561 0.0 1.0028871297836304 -0.00011466602882137522
3.518796992481203 0.0 1.00333571434021 -0.00012851538485847414
3.5288220551378444 0.0 1.0036728382110596 -0.00013762942398898304
3.538847117794486 0.0 1.0038584470748901 -0.00014331538113765419
3.5488721804511276 0.0 1.0038721561431885 -0.0001471824652981013
3.5588972431077694 0.0 1.0037139654159546 -0.0001506721309851855
3.568922305764411 0.0 1.0034023523330688 -0.0001547020219732076
3.578947368421052 0.0 1.0029710531234741 -0.00015948640066199005
3.588972431077694 0.0 1.0024631023406982 -0.0001645366137381643
3.598997493734336 0.0 1.0019265413284302 -0.00016880311886779964
3.6090225563909772 0.0 1.0014089345932007 -0.00017090854817070067
3.6190476190476186 0.0 1.000954508781433 -0.00016938717453740537
3.6290726817042605 0.0 1.000600814819336 -0.00016292804502882063
3.6390977443609023 0.0 1.0003752708435059 -0.0001505752734374255
3.6491228070175437 0.0 1.0002920627593994 -0.00013192379265092313
3.659147869674185 0.0 1.000348687171936 -0.00010731987276813015
3.669172932330827 0.0 1.0005251169204712 -7.803885819157586e-05
3.6791979949874687 0.0 1.000786304473877 -4.6365861635422334e-05
3.68922305764411 0.0 1.0010886192321777 -1.5459339920198545e-05
3.6992481203007515 0.0 1.0013892650604248 1.1078115676355083e-05
3.7092731829573933 0.0 1.0016552209854126 2.9908409487688914e-05
3.719298245614035 0.0 1.001870036125183 3.88170919904951e-05
3.7293233082706765 0.0 1.0020346641540527 3.744001514860429e-05
3.739348370927318 0.0 1.0021635293960571 2.7574398700380698e-05
3.7493734335839597 0.0 1.0022759437561035 1.2889538083982188e-05
3.7593984962406015 0.0 1.00238835811615 -1.943869392562192e-06
3.769423558897243 0.0 1.0025079250335693 -1.2453495401132386e-05
3.7794486215538843 0.0 1.0026299953460693 -1.5507652278756723e-05
3.789473684210526 0.0 1.0027382373809814 -1.0047889190900605e-05
3.799498746867168 0.0 1.0028079748153687 2.7722317099687643e-06
3.8095238095238093 0.0 1.0028109550476074 2.0040697563672438e-05
3.8195488721804507 0.0 1.0027228593826294 3.7933150451863185e-05
3.8295739348370925 0.0 1.0025312900543213 5.26876283402089e-05
3.8395989974937343 0.0 1.0022428035736084 6.141121411928907e-05
3.8496240601503757 0.0 1.0018888711929321 6.252507591852918e-05
3.859649122807017 0.0 1.0015257596969604 5.5810585763538256e-05
3.869674185463659 0.0 1.0012288093566895 4.2161471355939284e-05
3.8796992481203008 0.0 1.0010817050933838 2.3206728656077757e-05
3.889724310776942 0.0 1.0011639595031738 9.89098111858766e-07
3.8997493734335835 0.0 1.0015389919281006 -2.224542186013423e-05
3.9097744360902253 0.0 1.0022469758987427 -4.4069918658351526e-05
3.919799498746867 0.0 1.0033015012741089 -6.178937474032864e-05
3.9298245614035086 0.0 1.0046899318695068 -7.228316826513037e-05
3.93984962406015 0.0 1.0063759088516235 -7.191226904978976e-05
3.9498746867167918 0.0 1.008301854133606 -5.66480121051427e-05
3.9598997493734336 0.0 1.0103936195373535 -2.249571480206214e-05
3.969924812030075 0.0 1.0125679969787598 3.374417792656459e-05
3.9799498746867163 0.0 1.014748454093933 0.0001135247657657601
3.989974937343358 0.0 1.0168871879577637 0.00021564241615124047
4.0 0.0 1.0189933776855469 0.00033570887171663344
0.0 0.010101010101010102 0.27430564165115356 0.0002482564013916999
0.010025062656641603 0.010101010101010102 0.5476136207580566 -5.739039261243306e-05
0.020050125313283207 0.010101010101010102 0.6845628023147583 -0.00018786682630889118
0.03007518796992481 0.010101010101010102 0.7583536505699158 -0.00019545303075574338
0.040100250626566414 0.010101010101010102 0.8053103089332581 -0.00017179144197143614
0.05012531328320802 0.010101010101010102 0.8393762707710266 -0.00014331049169413745
0.06015037593984962 0.010101010101010102 0.8658552169799805 -0.00011356916365912184
0.07017543859649122 0.010101010101010102 0.8867681622505188 -8.037834049900994e-05
0.08020050125313283 0.010101010101010102 0.9029347896575928 -4.174126297584735e-05
0.09022556390977443 0.010101010101010102 0.9148554801940918 2.374440555286128e-06
0.10025062656641603 0.010101010101010102 0.9230926632881165 5.014907583245076e-05
0.11027568922305764 0.010101010101010102 0.9283957481384277 9.870916983345523e-05
0.12030075187969924 0.010101010101010102 0.9316733479499817 0.00014488972374238074
0.13032581453634084 0.010101010101010102 0.9338782429695129 0.00018551319953985512
0.14035087719298245 0.010101010101010102 0.935864269733429 0.00021722810924984515
0.15037593984962405 0.010101010101010102 0.9382709860801697 0.00023623966262675822
0.16040100250626566 0.010101010101010102 0.941469132900238 0.00023833036539144814
0.17042606516290726 0.010101010101010102 0.9455717206001282 0.00021936456323601305
0.18045112781954886 0.010101010101010102 0.9504904747009277 0.00017614630633033812
0.19047619047619047 0.010101010101010102 0.9560112357139587 0.00010734567331383005
0.20050125313283207 0.010101010101010102 0.9618655443191528 1.415834867657395e-05
0.21052631578947367 0.010101010101010102 0.9677847623825073 -9.952318941941485e-05
0.22055137844611528 0.010101010101010102 0.9735320806503296 -0.00022745193564333022
0.23057644110275688 0.010101010101010102 0.9789134860038757 -0.0003618459159042686
0.24060150375939848 0.010101010101010102 0.9837756156921387 -0.0004944985266774893
0.2506265664160401 0.010101010101010102 0.9879979491233826 -0.0006180009222589433
0.2606516290726817 0.010101010101010102 0.9914889931678772 -0.0007268944173119962
0.2706766917293233 0.010101010101010102 0.9941906332969666 -0.0008185509359464049
0.2807017543859649 0.010101010101010102 0.9960895776748657 -0.0008936101803556085
0.2907268170426065 0.010101010101010102 0.9972308874130249 -0.000955782481469214
0.3007518796992481 0.010101010101010102 0.9977246522903442 -0.0010109440190717578
0.3107769423558897 0.010101010101010102 0.9977395534515381 -0.001065629068762064
0.3208020050125313 0.010101010101010102 0.9974831938743591 -0.001125243492424488
0.3308270676691729 0.010101010101010102 0.9971730709075928 -0.0011924168793484569
0.3408521303258145 0.010101010101010102 0.9970042705535889 -0.00126593466848135
0.3508771929824561 0.010101010101010102 0.9971214532852173 -0.0013405068311840296
0.3609022556390977 0.010101010101010102 0.9976003170013428 -0.0014074529753997922
0.37092731829573933 0.010101010101010102 0.9984420537948608 -0.001456180470995605
0.38095238095238093 0.010101010101010102 0.9995806217193604 -0.001476105535402894
0.39097744360902253 0.010101010101010102 1.0009015798568726 -0.0014586257748305798
0.40100250626566414 0.010101010101010102 1.0022681951522827 -0.0013987094862386584
0.41102756892230574 0.010101010101010102 1.0035492181777954 -0.0012958614388480783
0.42105263157894735 0.010101010101010102 1.0046420097351074 -0.0011543402215465903
0.43107769423558895 0.010101010101010102 1.0054874420166016 -0.0009826933965086937
0.44110275689223055 0.010101010101010102 1.0060728788375854 -0.0007927340921014547
0.45112781954887216 0.010101010101010102 1.0064265727996826 -0.0005980823189020157
0.46115288220551376 0.010101010101010102 1.006603717803955 -0.0004124797706026584
0.47117794486215536 0.010101010101010102 1.0066709518432617 -0.0002480687398929149
0.48120300751879697 0.010101010101010102 1.006691336631775 -0.00011390618601581082
0.49122807017543857 0.010101010101010102 1.006712555885315 -1.49889046952012e-05