TITLE = "Vortex Convect"
VARIABLES = "X", "Y", "u", "v"
ZONE T="BIG ZONE", I=400, J=100, DATAPACKING=POINT
0.0 0.0 0.27877873182296753 0.0002262027992401272
0.010025062656641603 0.0 0.9751226305961609 -0.0004297381092328578
0.020050125313283207 0.0 0.9805434346199036 -0.0002799508220050484
0.03007518796992481 0.0 0.9863821864128113 -0.00015473071835003793
0.040100250626566414 0.0 0.9922398328781128 -5.9044654335593805e-05
0.05012531328320802 0.0 0.9977301955223083 7.257481229316909e-06
0.06015037593984962 0.0 1.0025368928909302 4.764218829222955e-05
0.07017543859649122 0.0 1.006447672843933 6.688389839837328e-05
0.08020050125313283 0.0 1.0093618631362915 6.95918351993896e-05
0.09022556390977443 0.0 1.0112744569778442 5.9472662542248145e-05
0.10025062656641603 0.0 1.0122500658035278 3.9244918298209086e-05
0.11027568922305764 0.0 1.0123950242996216 1.0926542927336413e-05
0.12030075187969924 0.0 1.0118348598480225 -2.381621379754506e-05
0.13032581453634084 0.0 1.0107014179229736 -6.346540612867102e-05
0.14035087719298245 0.0 1.0091240406036377 -0.0001066604963853024
0.15037593984962405 0.0 1.0072287321090698 -0.00015235421597026289
0.16040100250626566 0.0 1.0051372051239014 -0.00019998723291791975
0.17042606516290726 0.0 1.0029679536819458 -0.00024959511938504875
0.18045112781954886 0.0 1.0008370876312256 -0.0003017707203980535
0.19047619047619047 0.0 0.9988551139831543 -0.0003575003647711128
0.20050125313283207 0.0 0.9971233010292053 -0.00041790728573687375
0.21052631578947367 0.0 0.9957268238067627 -0.0004839789180550724
0.22055137844611528 0.0 0.9947282671928406 -0.0005563216982409358
0.23057644110275688 0.0 0.9941617846488953 -0.0006349970353767276
0.24060150375939848 0.0 0.9940299987792969 -0.0007194507634267211
0.2506265664160401 0.0 0.9943045973777771 -0.0008085257722996175
0.2606516290726817 0.0 0.9949303865432739 -0.0009005292085930705
0.2706766917293233 0.0 0.9958332777023315 -0.000993326073512435
0.2807017543859649 0.0 0.996928870677948 -0.00108443689532578
0.2907268170426065 0.0 0.9981316328048706 -0.0011711334809660912
0.3007518796992481 0.0 0.9993624091148376 -0.0012505078921094537
0.3107769423558897 0.0 1.0005524158477783 -0.0013195422943681479
0.3208020050125313 0.0 1.001645803451538 -0.0013751686783507466
0.3308270676691729 0.0 1.0025993585586548 -0.0014143354492262006
0.3408521303258145 0.0 1.0033819675445557 -0.0014340952038764954
0.3508771929824561 0.0 1.003973364830017 -0.001431707525625825
0.3609022556390977 0.0 1.0043631792068481 -0.0014047507429495454
0.37092731829573933 0.0 1.0045498609542847 -0.001351257786154747
0.38095238095238093 0.0 1.0045404434204102 -0.0012698611244559288
0.39097744360902253 0.0 1.0043504238128662 -0.0011599556310102344
0.40100250626566414 0.0 1.0040040016174316 -0.0010218629613518715
0.41102756892230574 0.0 1.0035334825515747 -0.0008569724741391838
0.42105263157894735 0.0 1.002978801727295 -0.0006678288918919861
0.43107769423558895 0.0 1.0023852586746216 -0.00045813279575668275
0.44110275689223055 0.0 1.001800775527954 -0.0002326530811842531
0.45112781954887216 0.0 1.0012723207473755 2.9554694265243597e-06
0.46115288220551376 0.0 1.000840663909912 0.00024241293431259692
0.47117794486215536 0.0 1.000536561012268 0.00047910926514305174
0.48120300751879697 0.0 1.0003762245178223 0.0007064410601742566
0.49122807017543857 0.0 1.0003581047058105 0.0009181160130538046
0.5012531328320802 0.0 1.0004633665084839 0.0011084710713475943
0.5112781954887218 0.0 1.000657320022583 0.0012727370485663414
0.5213032581453634 0.0 1.0008947849273682 0.0014072682242840528
0.531328320802005 0.0 1.0011264085769653 0.001509698573499918
0.5413533834586466 0.0 1.0013073682785034 0.0015790206380188465
0.5513784461152882 0.0 1.0014030933380127 0.0016155489720404148
0.5614035087719298 0.0 1.0013939142227173 0.0016207792796194553
0.5714285714285714 0.0 1.0012764930725098 0.001597164897248149
0.581453634085213 0.0 1.001060962677002 0.0015478390268981457
0.5914786967418546 0.0 1.0007678270339966 0.0014763548970222473
0.6015037593984962 0.0 1.0004216432571411 0.0013864676002413034
0.6115288220551378 0.0 1.0000470876693726 0.0012819922994822264
0.6215538847117794 0.0 0.9996646046638489 0.0011667297221720219
0.631578947368421 0.0 0.9992882609367371 0.0010444314684718847
0.6416040100250626 0.0 0.9989253282546997 0.0009187688701786101
0.6516290726817042 0.0 0.9985774755477905 0.0007932889857329428
0.6616541353383458 0.0 0.9982428550720215 0.00067132682306692
0.6716791979949874 0.0 0.9979187250137329 0.0005558905540965497
0.681704260651629 0.0 0.9976044297218323 0.0004495526954997331
0.6917293233082706 0.0 0.9973030686378479 0.0003543499915394932
0.7017543859649122 0.0 0.9970226883888245 0.00027171921101398766
0.7117794486215538 0.0 0.9967760443687439 0.00020248224609531462
0.7218045112781954 0.0 0.9965787529945374 0.0001468647096771747
0.731829573934837 0.0 0.9964476823806763 0.00010454995936015621
0.7418546365914787 0.0 0.9963973760604858 7.474228186765686e-05
0.7518796992481203 0.0 0.9964373111724854 5.6235268857562914e-05
0.7619047619047619 0.0 0.9965692162513733 4.748875289806165e-05
0.7719298245614035 0.0 0.9967857003211975 4.6700737584615126e-05
0.7819548872180451 0.0 0.9970700144767761 5.189006697037257e-05
0.7919799498746867 0.0 0.9973978400230408 6.098070662119426e-05
0.8020050125313283 0.0 0.9977403283119202 7.190896576503292e-05
0.8120300751879699 0.0 0.9980677366256714 8.272255217889324e-05
0.8220551378446115 0.0 0.9983537793159485 9.169398254016414e-05
0.8320802005012531 0.0 0.9985782504081726 9.741707617649809e-05
0.8421052631578947 0.0 0.9987295866012573 9.890230285236612e-05
0.8521303258145363 0.0 0.9988046884536743 9.563068306306377e-05
0.8621553884711779 0.0 0.9988083243370056 8.758719923207536e-05
0.8721804511278195 0.0 0.9987507462501526 7.524589454988018e-05
0.8822055137844611 0.0 0.9986454844474792 5.95165511185769e-05
0.8922305764411027 0.0 0.998507022857666 4.163224730291404e-05
0.9022556390977443 0.0 0.9983489513397217 2.303035944350995e-05
0.9122807017543859 0.0 0.9981831312179565 5.189712283026893e-06
0.9223057644110275 0.0 0.9980192184448242 -1.0515413123357575e-05
0.9323308270676691 0.0 0.9978649616241455 -2.2942400391912088e-05
0.9423558897243107 0.0 0.9977265000343323 -3.127890158793889e-05
0.9523809523809523 0.0 0.9976090788841248 -3.5085449781036004e-05
0.9624060150375939 0.0 0.9975172281265259 -3.4304535802220926e-05
0.9724310776942355 0.0 0.997454822063446 -2.9222075681900606e-05
0.9824561403508771 0.0 0.9974251985549927 -2.0404313545441255e-05
0.9924812030075187 0.0 0.9974304437637329 -8.615049409854691e-06
1.0025062656641603 0.0 0.997471034526825 5.267594133329112e-06
1.012531328320802 0.0 0.9975455403327942 2.033161945291795e-05
1.0225563909774436 0.0 0.9976499080657959 3.5693436075234786e-05
1.0325814536340852 0.0 0.9977777004241943 5.0546634156489745e-05
1.0426065162907268 0.0 0.9979199171066284 6.418364500859752e-05
1.0526315789473684 0.0 0.9980661273002625 7.601435208925977e-05
1.06265664160401 0.0 0.9982052445411682 8.556401735404506e-05
1.0726817042606516 0.0 0.9983267188072205 9.247198613593355e-05
1.0827067669172932 0.0 0.9984217286109924 9.648680133977905e-05
1.0927318295739348 0.0 0.9984843134880066 9.747353760758415e-05
1.1027568922305764 0.0 0.998511791229248 9.542590851197019e-05
1.112781954887218 0.0 0.9985048770904541 9.048046922544017e-05
1.1228070175438596 0.0 0.9984670877456665 8.293955033877864e-05
1.1328320802005012 0.0 0.9984041452407837 7.327032653847709e-05
1.1428571428571428 0.0 0.9983232617378235 6.211005529621616e-05
1.1528822055137844 0.0 0.9982319474220276 5.022812183597125e-05
1.162907268170426 0.0 0.9981372952461243 3.847459811368026e-05
1.1729323308270676 0.0 0.9980458617210388 2.7710138965630904e-05
1.1829573934837092 0.0 0.9979628920555115 1.8720547814154997e-05
1.1929824561403508 0.0 0.9978925585746765 1.213784435094567e-05
1.2030075187969924 0.0 0.9978377819061279 8.383100976061542e-06
1.213032581453634 0.0 0.9978001117706299 7.6169717431184836e-06
1.2230576441102756 0.0 0.9977799654006958 9.735847015690524e-06
1.2330827067669172 0.0 0.9977766275405884 1.4388501767825801e-05
1.2431077694235588 0.0 0.9977878332138062 2.1015443053329363e-05
1.2531328320802004 0.0 0.9978098273277283 2.8910380933666602e-05
1.263157894736842 0.0 0.9978376626968384 3.728169031091966e-05
1.2731829573934836 0.0 0.9978651404380798 4.53184220532421e-05
1.2832080200501252 0.0 0.9978849291801453 5.2246647101128474e-05
1.2932330827067668 0.0 0.9978895783424377 5.737590618082322e-05
1.3032581453634084 0.0 0.9978717565536499 6.013366873958148e-05
1.31328320802005 0.0 0.9978253841400146 6.008989657857455e-05
1.3233082706766917 0.0 0.997745931148529 5.696798689314164e-05
1.3333333333333333 0.0 0.9976316690444946 5.0657927204156294e-05
1.3433583959899749 0.0 0.9974833726882935 4.121699384995736e-05
1.3533834586466165 0.0 0.9973049163818359 2.8871963877463713e-05
1.363408521303258 0.0 0.9971025586128235 1.4011199709784705e-05
1.3734335839598997 0.0 0.996884822845459 -2.8250169634702615e-06
1.3834586466165413 0.0 0.9966611862182617 -2.0974282961105928e-05
1.3934837092731829 0.0 0.9964415431022644 -3.968280725530349e-05
1.4035087719298245 0.0 0.9962355494499207 -5.8158151659881696e-05
1.413533834586466 0.0 0.9960517883300781 -7.562649989267811e-05
1.4235588972431077 0.0 0.9958974123001099 -9.139425674220547e-05
1.4335839598997493 0.0 0.9957780241966248 -0.00010490495333215222
1.443609022556391 0.0 0.9956977963447571 -0.00011578978592297062
1.4536340852130325 0.0 0.9956594705581665 -0.0001238901459146291
1.463659147869674 0.0 0.9956643581390381 -0.000129265506984666
1.4736842105263157 0.0 0.9957126975059509 -0.00013217379455454648
1.4837092731829573 0.0 0.9958035945892334 -0.00013303148443810642
1.493734335839599 0.0 0.9959346652030945 -0.00013236291124485433
1.5037593984962405 0.0 0.9961023330688477 -0.000130734610138461
1.5137844611528821 0.0 0.9963015913963318 -0.00012871043873019516
1.5238095238095237 0.0 0.9965260028839111 -0.00012679261271841824
1.5338345864661653 0.0 0.9967679977416992 -0.00012539842282421887
1.543859649122807 0.0 0.9970192313194275 -0.00012484585749916732
1.5538847117794485 0.0 0.9972714781761169 -0.00012534615234471858
1.5639097744360901 0.0 0.9975169897079468 -0.00012701514060609043
1.5739348370927317 0.0 0.9977492094039917 -0.0001298935676459223
1.5839598997493733 0.0 0.9979637265205383 -0.00013394872075878084
1.593984962406015 0.0 0.9981582760810852 -0.00013907635002397
1.6040100250626566 0.0 0.9983325600624084 -0.00014509694301523268
1.6140350877192982 0.0 0.9984886050224304 -0.00015173657448031008
1.6240601503759398 0.0 0.9986291527748108 -0.000158606591867283
1.6340852130325814 0.0 0.9987577795982361 -0.00016519284690730274
1.644110275689223 0.0 0.9988774061203003 -0.0001708602358121425
1.6541353383458646 0.0 0.9989896416664124 -0.00017487755394540727
1.6641604010025062 0.0 0.9990947842597961 -0.00017646720516495407
1.6741854636591478 0.0 0.9991912841796875 -0.00017488512094132602
1.6842105263157894 0.0 0.9992761015892029 -0.0001695023092906922
1.694235588972431 0.0 0.9993452429771423 -0.00015990008250810206
1.7042606516290726 0.0 0.9993945360183716 -0.00014593414380215108
1.7142857142857142 0.0 0.9994200468063354 -0.0001277908158954233
1.7243107769423558 0.0 0.9994185566902161 -0.00010599029337754473
1.7343358395989974 0.0 0.9993883967399597 -8.13511069281958e-05
1.744360902255639 0.0 0.9993288516998291 -5.492925629368983e-05
1.7543859649122806 0.0 0.9992406368255615 -2.7918689738726243e-05
1.7644110275689222 0.0 0.9991253018379211 -1.5456126902790857e-06
1.7744360902255638 0.0 0.9989854097366333 2.3037926439428702e-05
1.7844611528822054 0.0 0.9988239407539368 4.483622979023494e-05
1.794486215538847 0.0 0.9986445307731628 6.307339208433405e-05
1.8045112781954886 0.0 0.9984517097473145 7.721540896454826e-05
1.8145363408521302 0.0 0.9982508420944214 8.696379518369213e-05
1.8245614035087718 0.0 0.9980484843254089 9.221470827469602e-05
1.8345864661654134 0.0 0.9978523254394531 9.301063983002678e-05
1.844611528822055 0.0 0.9976712465286255 8.948965842137113e-05
1.8546365914786966 0.0 0.9975143671035767 8.184256876120344e-05
1.8646616541353382 0.0 0.9973908066749573 7.0297195634339e-05
1.8746867167919798 0.0 0.9973079562187195 5.512222196557559e-05
1.8847117794486214 0.0 0.9972710013389587 3.665537587949075e-05
1.894736842105263 0.0 0.9972814321517944 1.5332163457060233e-05
1.9047619047619047 0.0 0.9973369240760803 -8.28768952487735e-06
1.9147869674185463 0.0 0.9974312782287598 -3.351361010572873e-05
1.9248120300751879 0.0 0.9975548982620239 -5.9550944570219144e-05
1.9348370927318295 0.0 0.9976959228515625 -8.556499233236536e-05
1.944862155388471 0.0 0.997842013835907 -0.00011075319343945011
1.9548872180451127 0.0 0.99798184633255 -0.0001344550692010671
1.9649122807017543 0.0 0.9981062412261963 -0.0001562433026265353
1.9749373433583959 0.0 0.9982095956802368 -0.00017598815611563623
1.9849624060150375 0.0 0.9982902407646179 -0.00019388357759453356
1.994987468671679 0.0 0.9983499050140381 -0.00021042858134023845
2.0050125313283207 0.0 0.9983934760093689 -0.00022634546621702611
2.015037593984962 0.0 0.9984274506568909 -0.00024246875545941293
2.025062656641604 0.0 0.9984590411186218 -0.0002596100384835154
2.0350877192982457 0.0 0.9984947443008423 -0.00027841419796459377
2.045112781954887 0.0 0.9985392689704895 -0.00029925056151114404
2.0551378446115285 0.0 0.9985951781272888 -0.0003221265214961022
2.0651629072681703 0.0 0.9986626505851746 -0.0003466595953796059
2.075187969924812 0.0 0.9987398982048035 -0.0003721001266967505
2.0852130325814535 0.0 0.9988236427307129 -0.00039740963256917894
2.095238095238095 0.0 0.9989100694656372 -0.0004213769279886037
2.1052631578947367 0.0 0.9989957809448242 -0.0004427717940416187
2.1152882205513786 0.0 0.9990782737731934 -0.00046049008960835636
2.12531328320802 0.0 0.9991565346717834 -0.00047368110972456634
2.1353383458646613 0.0 0.9992308020591736 -0.0004818191227968782
2.145363408521303 0.0 0.9993023872375488 -0.00048472682829014957
2.155388471177945 0.0 0.9993728399276733 -0.0004825282085221261
2.1654135338345863 0.0 0.9994433522224426 -0.000475560111226514
2.1754385964912277 0.0 0.999514102935791 -0.000464270036900416
2.1854636591478696 0.0 0.9995835423469543 -0.00044911683653481305
2.1954887218045114 0.0 0.9996488094329834 -0.0004304925387259573
2.2055137844611528 0.0 0.9997059106826782 -0.0004086913831997663
2.215538847117794 0.0 0.9997504353523254 -0.00038391872658394277
2.225563909774436 0.0 0.9997786283493042 -0.0003563399950508028
2.235588972431078 0.0 0.9997879266738892 -0.00032613324583508074
2.245614035087719 0.0 0.9997778534889221 -0.000293561170110479
2.2556390977443606 0.0 0.9997498393058777 -0.0002590179501567036
2.2656641604010024 0.0 0.9997072815895081 -0.00022304043523035944
2.275689223057644 0.0 0.9996550679206848 -0.00018627921235747635
2.2857142857142856 0.0 0.999598503112793 -0.00014944045688025653
2.295739348370927 0.0 0.9995425343513489 -0.00011320955672999844
2.305764411027569 0.0 0.9994913339614868 -7.816714787622914e-05
2.3157894736842106 0.0 0.999447762966156 -4.472149521461688e-05
2.325814536340852 0.0 0.9994131922721863 -1.3084233614790719e-05
2.3358395989974934 0.0 0.9993879199028015 1.672914731898345e-05
2.345864661654135 0.0 0.9993717670440674 4.485823228606023e-05
2.355889724310777 0.0 0.9993644952774048 7.15242131263949e-05
2.3659147869674184 0.0 0.9993667602539062 9.694349864730611e-05
2.37593984962406 0.0 0.9993798732757568 0.00012123600026825443
2.3859649122807016 0.0 0.9994065761566162 0.00014437167556025088
2.3959899749373434 0.0 0.9994500875473022 0.00016613330808468163
2.406015037593985 0.0 0.9995132684707642 0.0001861471973825246
2.416040100250626 0.0 0.9995982646942139 0.00020394395687617362
2.426065162907268 0.0 0.9997048377990723 0.0002190579252783209
2.43609022556391 0.0 0.9998301267623901 0.00023112670169211924
2.4461152882205512 0.0 0.9999684691429138 0.00023996984236873686
2.4561403508771926 0.0 1.000111699104309 0.0002456337970215827
2.4661654135338344 0.0 1.0002504587173462 0.00024838026729412377
2.4761904761904763 0.0 1.0003747940063477 0.0002486311423126608
2.4862155388471177 0.0 1.000476598739624 0.0002468857273925096
2.496240601503759 0.0 1.0005500316619873 0.00024362539988942444
2.506265664160401 0.0 1.0005922317504883 0.00023921523825265467
2.5162907268170427 0.0 1.0006039142608643 0.00023385047097690403
2.526315789473684 0.0 1.0005885362625122 0.000227531447308138
2.5363408521303255 0.0 1.0005515813827515 0.00022008109954185784
2.5463659147869673 0.0 1.0004994869232178 0.0002112037327606231
2.556390977443609 0.0 1.0004385709762573 0.0002005687274504453
2.5664160401002505 0.0 1.000374436378479 0.0001878993643913418
2.576441102756892 0.0 1.000311255455017 0.0001730567601043731
2.5864661654135337 0.0 1.0002520084381104 0.00015609656111337245
2.5964912280701755 0.0 1.0001987218856812 0.00013729956117458642
2.606516290726817 0.0 1.0001534223556519 0.0001171514522866346
2.6165413533834583 0.0 1.0001178979873657 9.628877887735143e-05
2.6265664160401 0.0 1.0000948905944824 7.541376544395462e-05
2.636591478696742 0.0 1.0000872611999512 5.519323531189002e-05
2.6466165413533833 0.0 1.0000983476638794 3.6165150959277526e-05
2.6566416040100247 0.0 1.0001310110092163 1.8681781511986628e-05
2.6666666666666665 0.0 1.0001863241195679 2.8875992938992567e-06
2.6766917293233083 0.0 1.0002634525299072 -1.1243008884775918e-05
2.6867167919799497 0.0 1.0003589391708374 -2.3841825168346986e-05
2.696741854636591 0.0 1.0004665851593018 -3.506402936181985e-05
2.706766917293233 0.0 1.0005778074264526 -4.5022079575574026e-05
2.7167919799498748 0.0 1.000683307647705 -5.374927059165202e-05
2.726817042606516 0.0 1.0007740259170532 -6.120077887317166e-05
2.7368421052631575 0.0 1.0008424520492554 -6.72791720717214e-05
2.7468671679197993 0.0 1.0008838176727295 -7.188898598542437e-05
2.756892230576441 0.0 1.00089693069458 -7.497864862671122e-05
2.7669172932330826 0.0 1.00088369846344 -7.658878894289955e-05
2.776942355889724 0.0 1.0008490085601807 -7.685887248953804e-05
2.7869674185463658 0.0 1.0007996559143066 -7.602789992233738e-05
2.7969924812030076 0.0 1.00074303150177 -7.440553599735722e-05
2.807017543859649 0.0 1.0006859302520752 -7.23329940228723e-05
2.8170426065162903 0.0 1.0006343126296997 -7.014135917415842e-05
2.827067669172932 0.0 1.0005921125411987 -6.810828199377283e-05
2.837092731829574 0.0 1.0005619525909424 -6.643038796028122e-05
2.8471177944862154 0.0 1.0005455017089844 -6.520337046822533e-05
2.8571428571428568 0.0 1.0005437135696411 -6.44204774289392e-05
2.8671679197994986 0.0 1.000557780265808 -6.398869300028309e-05
2.8771929824561404 0.0 1.0005890130996704 -6.37605189695023e-05
2.887218045112782 0.0 1.000639796257019 -6.35772812529467e-05
2.897243107769423 0.0 1.0007120370864868 -6.331266922643408e-05
2.907268170426065 0.0 1.000807285308838 -6.29103378742002e-05
2.917293233082707 0.0 1.0009254217147827 -6.239228969207034e-05
2.927318295739348 0.0 1.0010640621185303 -6.183652294566855e-05
2.9373433583959896 0.0 1.0012176036834717 -6.13327938481234e-05
2.9473684210526314 0.0 1.0013775825500488 -6.092569310567342e-05
2.9573934837092732 0.0 1.001532793045044 -6.0577145632123575e-05
2.9674185463659146 0.0 1.0016710758209229 -6.016072802594863e-05
2.977443609022556 0.0 1.001780390739441 -5.949448313913308e-05
2.987468671679198 0.0 1.0018507242202759 -5.839261211804114e-05
2.9974937343358397 0.0 1.001875400543213 -5.673683699569665e-05
3.007518796992481 0.0 1.0018515586853027 -5.451912511489354e-05
3.0175438596491224 0.0 1.0017811059951782 -5.1866019930457696e-05
3.0275689223057642 0.0 1.0016697645187378 -4.901407737634145e-05
3.037593984962406 0.0 1.0015259981155396 -4.626737427315675e-05
3.0476190476190474 0.0 1.0013604164123535 -4.3932082917308435e-05
3.057644110275689 0.0 1.0011835098266602 -4.225500379106961e-05
3.0676691729323307 0.0 1.0010051727294922 -4.1376068111276254e-05
3.0776942355889725 0.0 1.0008336305618286 -4.128805812797509e-05
3.087719298245614 0.0 1.0006755590438843 -4.1830320697044954e-05
3.0977443609022552 0.0 1.0005353689193726 -4.269517012289725e-05
3.107769423558897 0.0 1.0004163980484009 -4.345757406554185e-05
3.117794486215539 0.0 1.0003210306167603 -4.363941479823552e-05
3.1278195488721803 0.0 1.000251293182373 -4.2790397856151685e-05
3.1378446115288217 0.0 1.0002094507217407 -4.058956619701348e-05
3.1478696741854635 0.0 1.0001986026763916 -3.694599945447408e-05
3.1578947368421053 0.0 1.0002217292785645 -3.205946632078849e-05
3.1679197994987467 0.0 1.0002814531326294 -2.641704850248061e-05
3.177944862155388 0.0 1.000378131866455 -2.0713512640213594e-05
3.18796992481203 0.0 1.000508189201355 -1.5705325495218858e-05
3.1979949874686717 0.0 1.000663161277771 -1.2033236089337151e-05
3.208020050125313 0.0 1.000829815864563 -1.008188246487407e-05
3.2180451127819545 0.0 1.0009905099868774 -9.914710062730592e-06
3.2280701754385963 0.0 1.0011265277862549 -1.130901637225179e-05
3.238095238095238 0.0 1.001220464706421 -1.3864449101674836e-05
3.2481203007518795 0.0 1.0012593269348145 -1.7158188711619005e-05
3.258145363408521 0.0 1.0012366771697998 -2.0874980691587552e-05
3.2681704260651627 0.0 1.001153826713562 -2.4866629246389493e-05
3.2781954887218046 0.0 1.001018762588501 -2.9143378924345598e-05
3.288220551378446 0.0 1.0008453130722046 -3.3791493478929624e-05
3.2982456140350873 0.0 1.0006495714187622 -3.886417471221648e-05
3.308270676691729 0.0 1.0004479885101318 -4.4293319660937414e-05
3.318295739348371 0.0 1.00025475025177 -4.9860300350701436e-05
3.3283208020050123 0.0 1.0000805854797363 -5.5222739320015535e-05
3.3383458646616537 0.0 0.999932587146759 -5.9986105043208227e-05
3.3483709273182956 0.0 0.9998148083686829 -6.377344107022509e-05
3.3583959899749374 0.0 0.9997285008430481 -6.625285459449515e-05
3.3684210526315788 0.0 0.9996722340583801 -6.714983464917168e-05
3.37844611528822 0.0 0.9996420741081238 -6.622840737691149e-05
3.388471177944862 0.0 0.9996321201324463 -6.332291377475485e-05
3.398496240601504 0.0 0.9996355772018433 -5.8431611250853166e-05
3.408521303258145 0.0 0.9996476173400879 -5.186881389818154e-05
3.4185463659147866 0.0 0.999668538570404 -4.441567216417752e-05
3.4285714285714284 0.0 0.9997066855430603 -3.736928556463681e-05
3.43859649122807 0.0 0.9997784495353699 -3.240952719352208e-05
3.4486215538847116 0.0 0.9999052286148071 -3.1256317015504465e-05
3.458646616541353 0.0 1.0001062154769897 -3.518847734085284e-05
3.468671679197995 0.0 1.0003902912139893 -4.460880518308841e-05
3.4786967418546366 0.0 1.000749111175537 -5.8820205595111474e-05
3.488721804511278 0.0 1.0011556148529053 -7.613185880472884e-05
3.4987468671679194 0.0 1.0015673637390137 -9.427041368326172e-05
3.508771929824561 0.0 1.001934289932251 -0.00011094318324467167
3.518796992481203 0.0 1.0022075176239014 -0.0001243867154698819
3.5288220551378444 0.0 1.0023481845855713 -0.00013368847430683672
3.538847117794486 0.0 1.0023342370986938 -0.0001388541131746024
3.5488721804511276 0.0 1.0021626949310303 -0.00014058357919566333
3.5588972431077694 0.0 1.0018506050109863 -0.00013987693819217384
3.568922305764411 0.0 1.001430869102478 -0.00013759316061623394
3.578947368421052 0.0 1.000947117805481 -0.00013410529936663806
3.588972431077694 0.0 1.0004472732543945 -0.00012916882405988872
3.598997493734336 0.0 0.9999787211418152 -0.00012204483937239274
3.6090225563909772 0.0 0.9995854496955872 -0.00011180430738022551
3.6190476190476186 0.0 0.9993064403533936 -9.771735494723544e-05
3.6290726817042605 0.0 0.9991743564605713 -7.955272303661332e-05
3.6390977443609023 0.0 0.999212920665741 -5.769807830802165e-05
3.6491228070175437 0.0 0.9994324445724487 -3.310149986646138e-05
3.659147869674185 0.0 0.9998250603675842 -7.1131753429654054e-06
3.669172932330827 0.0 1.0003618001937866 1.863044235506095e-05
3.6791979949874687 0.0 1.0009933710098267 4.220221671857871e-05
3.68922305764411 0.0 1.0016571283340454 6.129363464424387e-05
3.6992481203007515 0.0 1.0022882223129272 7.319058204302564e-05
3.7092731829573933 0.0 1.0028334856033325 7.501550862798467e-05
3.719298245614035 0.0 1.0032609701156616 6.435593968490139e-05
3.7293233082706765 0.0 1.0035640001296997 4.014445948996581e-05
3.739348370927318 0.0 1.0037561655044556 3.4858576327678747e-06
3.7493734335839597 0.0 1.0038610696792603 -4.200203329673968e-05
3.7593984962406015 0.0 1.0039023160934448 -9.059751027962193e-05
3.769423558897243 0.0 1.00389564037323 -0.00013560630031861365
3.7794486215538843 0.0 1.003845453262329 -0.0001708269992377609
3.789473684210526 0.0 1.0037435293197632 -0.00019189002341590822
3.799498746867168 0.0 1.0035709142684937 -0.00019704553415067494
3.8095238095238093 0.0 1.0033013820648193 -0.0001872203720267862
3.8195488721804507 0.0 1.0029078722000122 -0.00016545693506486714
3.8295739348370925 0.0 1.0023695230484009 -0.00013596992357634008
3.8395989974937343 0.0 1.0016796588897705 -0.00010316815314581618
3.8496240601503757 0.0 1.0008509159088135 -7.091482257237658e-05
3.859649122807017 0.0 0.9999182224273682 -4.2142895836150274e-05
3.869674185463659 0.0 0.998937726020813 -1.8818620446836576e-05
3.8796992481203008 0.0 0.9979856610298157 -2.0995166778448038e-06
3.889724310776942 0.0 0.997154951095581 7.473431651305873e-06
3.8997493734335835 0.0 0.9965525269508362 9.875079740595538e-06
3.9097744360902253 0.0 0.9962945580482483 5.6757462516543455e-06
3.919799498746867 0.0 0.9964991807937622 -3.6660012483480386e-06
3.9298245614035086 0.0 0.9972773194313049 -1.5367837477242574e-05
3.93984962406015 0.0 0.9987213015556335 -2.4911798391258344e-05
3.9498746867167918 0.0 1.0008950233459473 -2.5914832804119214e-05
3.9598997493734336 0.0 1.0038248300552368 -1.0624377864587586e-05
3.969924812030075 0.0 1.007494330406189 2.884472269215621e-05
3.9799498746867163 0.0 1.0118424892425537 9.859263809630647e-05
3.989974937343358 0.0 1.0167641639709473 0.00020085417781956494
4.0 0.0 1.0221147537231445 0.0003324996505398303
0.0 0.010101010101010102 0.2820330262184143 0.00033057379187084734
0.010025062656641603 0.010101010101010102 0.5492390394210815 -5.1790511861327104e-06
0.020050125313283207 0.010101010101010102 0.6877079606056213 -0.00014041023678146303
0.03007518796992481 0.010101010101010102 0.761080801486969 -0.00013220557593740523
0.040100250626566414 0.010101010101010102 0.8055065274238586 -9.342989505967125e-05
0.05012531328320802 0.010101010101010102 0.8358026742935181 -5.988726843497716e-05
0.06015037593984962 0.010101010101010102 0.8581346869468689 -3.847988773486577e-05
0.07017543859649122 0.010101010101010102 0.8753070831298828 -2.7844998840009794e-05
0.08020050125313283 0.010101010101010102 0.8887652158737183 -2.537874024710618e-05
0.09022556390977443 0.010101010101010102 0.8993764519691467 -2.937690805993043e-05
0.10025062656641603 0.010101010101010102 0.9077413082122803 -3.928466685465537e-05
0.11027568922305764 0.010101010101010102 0.9143155813217163 -5.516557939699851e-05
0.12030075187969924 0.010101010101010102 0.9194591045379639 -7.708495104452595e-05
0.13032581453634084 0.010101010101010102 0.9234593510627747 -0.00010471682617207989
0.14035087719298245 0.010101010101010102 0.9265473484992981 -0.00013727499754168093
0.15037593984962405 0.010101010101010102 0.9289131164550781 -0.0001737210259307176
0.16040100250626566 0.010101010101010102 0.9307184815406799 -0.0002130592765752226
0.17042606516290726 0.010101010101010102 0.9321085810661316 -0.0002545878814999014
0.18045112781954886 0.010101010101010102 0.9332177042961121 -0.0002980215067509562
0.19047619047619047 0.010101010101010102 0.934172511100769 -0.0003434702812228352
0.20050125313283207 0.010101010101010102 0.9350898861885071 -0.0003913227410521358
0.21052631578947367 0.010101010101010102 0.9360722899436951 -0.0004420715558808297
0.22055137844611528 0.010101010101010102 0.9372009038925171 -0.000496157503221184
0.23057644110275688 0.010101010101010102 0.938530445098877 -0.0005538364057429135
0.24060150375939848 0.010101010101010102 0.9400849938392639 -0.0006151074194349349
0.2506265664160401 0.010101010101010102 0.9418585896492004 -0.0006796792731620371
0.2606516290726817 0.010101010101010102 0.9438185095787048 -0.0007469663978554308
0.2706766917293233 0.010101010101010102 0.9459128379821777 -0.0008160858997143805
0.2807017543859649 0.010101010101010102 0.9480780363082886 -0.0008858502842485905
0.2907268170426065 0.010101010101010102 0.950248122215271 -0.000954758666921407
0.3007518796992481 0.010101010101010102 0.9523605108261108 -0.001020974013954401
0.3107769423558897 0.010101010101010102 0.9543606042861938 -0.0010823393240571022
0.3208020050125313 0.010101010101010102 0.9562044143676758 -0.0011364076053723693
0.3308270676691729 0.010101010101010102 0.9578593373298645 -0.0011805356480181217
0.3408521303258145 0.010101010101010102 0.9593048095703125 -0.0012119938619434834
0.3508771929824561 0.010101010101010102 0.9605315923690796 -0.0012281108647584915
0.3609022556390977 0.010101010101010102 0.961540937423706 -0.0012264014221727848
0.37092731829573933 0.010101010101010102 0.9623421430587769 -0.001204709173180163
0.38095238095238093 0.010101010101010102 0.9629515409469604 -0.0011613299138844013
0.39097744360902253 0.010101010101010102 0.9633904099464417 -0.0010951653821393847
0.40100250626566414 0.010101010101010102 0.9636847972869873 -0.0010058614425361156
0.41102756892230574 0.010101010101010102 0.963864803314209 -0.0008939389954321086
0.42105263157894735 0.010101010101010102 0.9639649391174316 -0.0007608816376887262
0.43107769423558895 0.010101010101010102 0.9640229940414429 -0.0006091473624110222
0.44110275689223055 0.010101010101010102 0.9640787839889526 -0.00044210543273948133
0.45112781954887216 0.010101010101010102 0.9641715884208679 -0.00026389825507067144
0.46115288220551376 0.010101010101010102 0.9643362164497375 -7.923269731691107e-05
0.47117794486215536 0.010101010101010102 0.9645994305610657 0.00010683612345019355
0.48120300751879697 0.010101010101010102 0.9649757146835327 0.00028917440795339644