TITLE = "Vortex Convect"
VARIABLES = "X", "Y", "u", "v"
ZONE T="BIG ZONE", I=400, J=100, DATAPACKING=POINT
0.0 0.0 0.3086901307106018 -0.0004904059460386634
0.010025062656641603 0.0 0.9784473776817322 -0.00034916415461339056
0.020050125313283207 0.0 0.9840078949928284 -0.00018736397032625973
0.03007518796992481 0.0 0.9897541403770447 -5.177963976166211e-05
0.040100250626566414 0.0 0.9953024387359619 5.332418731995858e-05
0.05012531328320802 0.0 1.0002964735031128 0.0001285295293200761
0.06015037593984962 0.0 1.0044580698013306 0.00017754492000676692
0.07017543859649122 0.0 1.0076152086257935 0.00020534373470582068
0.08020050125313283 0.0 1.0097068548202515 0.0002168129722122103
0.09022556390977443 0.0 1.010764241218567 0.00021601319895125926
0.10025062656641603 0.0 1.0108832120895386 0.00020600706920959055
0.11027568922305764 0.0 1.0101966857910156 0.00018902859301306307
0.12030075187969924 0.0 1.0088520050048828 0.0001667542674113065
0.13032581453634084 0.0 1.006998062133789 0.00014050074969418347
0.14035087719298245 0.0 1.00477933883667 0.00011129494669148698
0.15037593984962405 0.0 1.0023341178894043 7.981775706866756e-05
0.16040100250626566 0.0 0.9997946619987488 4.628688111552037e-05
0.17042606516290726 0.0 0.9972871541976929 1.0374268640589435e-05
0.18045112781954886 0.0 0.9949294924736023 -2.8790174837922677e-05
0.19047619047619047 0.0 0.9928287863731384 -7.253124931594357e-05
0.20050125313283207 0.0 0.9910776615142822 -0.00012245672405697405
0.21052631578947367 0.0 0.9897493124008179 -0.0001802582701202482
0.22055137844611528 0.0 0.9888940453529358 -0.0002474922512192279
0.23057644110275688 0.0 0.9885359406471252 -0.0003253835893701762
0.24060150375939848 0.0 0.9886718988418579 -0.0004146429419051856
0.2506265664160401 0.0 0.9892730712890625 -0.0005153149832040071
0.2606516290726817 0.0 0.9902886748313904 -0.0006266598356887698
0.2706766917293233 0.0 0.9916515946388245 -0.0007470670389011502
0.2807017543859649 0.0 0.9932851195335388 -0.000874030462000519
0.2907268170426065 0.0 0.9951097965240479 -0.001004162011668086
0.3007518796992481 0.0 0.9970486760139465 -0.0011332761496305466
0.3107769423558897 0.0 0.9990307092666626 -0.0012565271463245153
0.3208020050125313 0.0 1.0009926557540894 -0.0013685895828530192
0.3308270676691729 0.0 1.002878189086914 -0.001463912078179419
0.3408521303258145 0.0 1.0046374797821045 -0.0015369831817224622
0.3508771929824561 0.0 1.0062254667282104 -0.0015826469752937555
0.3609022556390977 0.0 1.0076013803482056 -0.0015964213525876403
0.37092731829573933 0.0 1.0087292194366455 -0.001574810827150941
0.38095238095238093 0.0 1.0095806121826172 -0.0015155867440626025
0.39097744360902253 0.0 1.0101372003555298 -0.0014180293073877692
0.40100250626566414 0.0 1.0103951692581177 -0.0012830941705033183
0.41102756892230574 0.0 1.0103678703308105 -0.0011134881060570478
0.42105263157894735 0.0 1.0100866556167603 -0.0009136224398389459
0.43107769423558895 0.0 1.0095999240875244 -0.0006894272519275546
0.44110275689223055 0.0 1.0089681148529053 -0.00044803545461036265
0.45112781954887216 0.0 1.0082582235336304 -0.00019733459339477122
0.46115288220551376 0.0 1.0075359344482422 5.4542822908842936e-05
0.47117794486215536 0.0 1.0068591833114624 0.00029973991331644356
0.48120300751879697 0.0 1.0062713623046875 0.0005311596323736012
0.49122807017543857 0.0 1.00579833984375 0.0007428228273056448
0.5012531328320802 0.0 1.005446195602417 0.0009300958481617272
0.5112781954887218 0.0 1.0052036046981812 0.0010897666215896606
0.5213032581453634 0.0 1.0050443410873413 0.001219974597916007
0.531328320802005 0.0 1.0049337148666382 0.0013200461398810148
0.5413533834586466 0.0 1.004834771156311 0.0013902636710554361
0.5513784461152882 0.0 1.0047147274017334 0.001431622775271535
0.5614035087719298 0.0 1.0045509338378906 0.001445617526769638
0.5714285714285714 0.0 1.0043343305587769 0.0014340761117637157
0.581453634085213 0.0 1.0040706396102905 0.0013990774750709534
0.5914786967418546 0.0 1.0037797689437866 0.001342908013612032
0.6015037593984962 0.0 1.0034911632537842 0.0012680853251367807
0.6115288220551378 0.0 1.0032389163970947 0.0011773966252803802
0.6215538847117794 0.0 1.0030548572540283 0.0010739245917648077
0.631578947368421 0.0 1.0029633045196533 0.0009610434644855559
0.6416040100250626 0.0 1.0029762983322144 0.000842355948407203
0.6516290726817042 0.0 1.0030922889709473 0.0007215787773020566
0.6616541353383458 0.0 1.0032966136932373 0.0006023782189004123
0.6716791979949874 0.0 1.0035654306411743 0.00048817499191500247
0.681704260651629 0.0 1.0038701295852661 0.00038195904926396906
0.6917293233082706 0.0 1.0041823387145996 0.00028610791196115315
0.7017543859649122 0.0 1.0044786930084229 0.0002022647822741419
0.7117794486215538 0.0 1.0047435760498047 0.00013126098201610148
0.7218045112781954 0.0 1.0049701929092407 7.311037188628688e-05
0.731829573934837 0.0 1.0051599740982056 2.7064732421422377e-05
0.7418546365914787 0.0 1.0053194761276245 -8.263242307293694e-06
0.7518796992481203 0.0 1.0054579973220825 -3.4732944186544046e-05
0.7619047619047619 0.0 1.0055832862854004 -5.446662180474959e-05
0.7719298245614035 0.0 1.0056995153427124 -6.963239138713107e-05
0.7819548872180451 0.0 1.0058050155639648 -8.22371439426206e-05
0.7919799498746867 0.0 1.0058926343917847 -9.394724474987015e-05
0.8020050125313283 0.0 1.005950689315796 -0.0001059659625752829
0.8120300751879699 0.0 1.005964994430542 -0.00011895890202140436
0.8220551378446115 0.0 1.0059211254119873 -0.0001330430677626282
0.8320802005012531 0.0 1.0058079957962036 -0.00014782891958020627
0.8421052631578947 0.0 1.0056194067001343 -0.00016249684267677367
0.8521303258145363 0.0 1.0053558349609375 -0.00017591167124919593
0.8621553884711779 0.0 1.005025029182434 -0.00018674900638870895
0.8721804511278195 0.0 1.0046412944793701 -0.00019364411127753556
0.8822055137844611 0.0 1.0042237043380737 -0.0001953321334440261
0.8922305764411027 0.0 1.0037946701049805 -0.0001907939149532467
0.9022556390977443 0.0 1.0033763647079468 -0.00017937520169652998
0.9122807017543859 0.0 1.002989411354065 -0.00016088460688479245
0.9223057644110275 0.0 1.0026496648788452 -0.0001356441352982074
0.9323308270676691 0.0 1.0023679733276367 -0.00010448853572597727
0.9423558897243107 0.0 1.002149224281311 -6.87110805301927e-05
0.9523809523809523 0.0 1.0019935369491577 -2.9961080144857988e-05
0.9624060150375939 0.0 1.0018973350524902 9.89056297839852e-06
0.9724310776942355 0.0 1.0018551349639893 4.8901336413109675e-05
0.9824561403508771 0.0 1.001861572265625 8.520045230397955e-05
0.9924812030075187 0.0 1.0019121170043945 0.00011711920524248853
1.0025062656641603 0.0 1.0020031929016113 0.00014327981625683606
1.012531328320802 0.0 1.0021320581436157 0.00016265982412733138
1.0225563909774436 0.0 1.0022950172424316 0.0001746153284329921
1.0325814536340852 0.0 1.0024867057800293 0.00017887636204250157
1.0426065162907268 0.0 1.0026990175247192 0.00017551615019328892
1.0526315789473684 0.0 1.002920389175415 0.00016489825793541968
1.06265664160401 0.0 1.0031365156173706 0.00014762594946660101
1.0726817042606516 0.0 1.0033314228057861 0.00012446907931007445
1.0827067669172932 0.0 1.0034888982772827 9.630880231270567e-05
1.0927318295739348 0.0 1.0035947561264038 6.409144407371059e-05
1.1027568922305764 0.0 1.0036383867263794 2.878930899896659e-05
1.112781954887218 0.0 1.0036134719848633 -8.619240361440461e-06
1.1228070175438596 0.0 1.0035196542739868 -4.716516923508607e-05
1.1328320802005012 0.0 1.0033619403839111 -8.588338823756203e-05
1.1428571428571428 0.0 1.0031503438949585 -0.0001238261174876243
1.1528822055137844 0.0 1.0028988122940063 -0.00016006283112801611
1.162907268170426 0.0 1.0026246309280396 -0.00019369865185581148
1.1729323308270676 0.0 1.0023462772369385 -0.00022389439982362092
1.1829573934837092 0.0 1.0020831823349 -0.0002498984395060688
1.1929824561403508 0.0 1.0018539428710938 -0.0002710763073991984
1.2030075187969924 0.0 1.0016756057739258 -0.00028693999047391117
1.213032581453634 0.0 1.0015625953674316 -0.00029718599398620427
1.2230576441102756 0.0 1.0015262365341187 -0.0003017218259628862
1.2330827067669172 0.0 1.0015733242034912 -0.0003006854385603219
1.2431077694235588 0.0 1.0017057657241821 -0.00029446693952195346
1.2531328320802004 0.0 1.001920461654663 -0.00028370312065817416
1.263157894736842 0.0 1.0022083520889282 -0.0002692608686629683
1.2731829573934836 0.0 1.0025548934936523 -0.0002521932765375823
1.2832080200501252 0.0 1.0029406547546387 -0.00023367503308691084
1.2932330827067668 0.0 1.0033427476882935 -0.00021491260849870741
1.3032581453634084 0.0 1.0037357807159424 -0.00019704035366885364
1.31328320802005 0.0 1.0040943622589111 -0.000181023235199973
1.3233082706766917 0.0 1.0043948888778687 -0.00016756742843426764
1.3333333333333333 0.0 1.0046180486679077 -0.00015706205158494413
1.3433583959899749 0.0 1.0047496557235718 -0.00014955390361137688
1.3533834586466165 0.0 1.0047825574874878 -0.00014477639342658222
1.363408521303258 0.0 1.0047166347503662 -0.00014219540753401816
1.3734335839598997 0.0 1.0045585632324219 -0.00014110436313785613
1.3834586466165413 0.0 1.004320740699768 -0.0001407165254931897
1.3934837092731829 0.0 1.0040199756622314 -0.00014026774442754686
1.4035087719298245 0.0 1.003675937652588 -0.0001390901452396065
1.413533834586466 0.0 1.003308892250061 -0.00013667371240444481
1.4235588972431077 0.0 1.002939224243164 -0.00013268462498672307
1.4335839598997493 0.0 1.002585530281067 -0.00012697282363660634
1.443609022556391 0.0 1.0022640228271484 -0.0001195352160721086
1.4536340852130325 0.0 1.0019887685775757 -0.00011048462329199538
1.463659147869674 0.0 1.0017709732055664 -0.00010000992187997326
1.4736842105263157 0.0 1.0016186237335205 -8.835232438286766e-05
1.4837092731829573 0.0 1.0015372037887573 -7.577749056508765e-05
1.493734335839599 0.0 1.0015279054641724 -6.258740177145228e-05
1.5037593984962405 0.0 1.0015885829925537 -4.912117947242223e-05
1.5137844611528821 0.0 1.0017125606536865 -3.576764356694184e-05
1.5238095238095237 0.0 1.0018889904022217 -2.2979420464253053e-05
1.5338345864661653 0.0 1.0021032094955444 -1.126268307416467e-05
1.543859649122807 0.0 1.002337098121643 -1.1660987411232782e-06
1.5538847117794485 0.0 1.0025711059570312 6.754799869668204e-06
1.5639097744360901 0.0 1.0027854442596436 1.1988716323685367e-05
1.5739348370927317 0.0 1.0029619932174683 1.4109919902693946e-05
1.5839598997493733 0.0 1.0030863285064697 1.2842157047998626e-05
1.593984962406015 0.0 1.0031487941741943 8.0933432400343e-06
1.6040100250626566 0.0 1.0031450986862183 -1.2422857409433163e-08
1.6140350877192982 0.0 1.0030766725540161 -1.1127990546810906e-05
1.6240601503759398 0.0 1.0029501914978027 -2.4694450985407457e-05
1.6340852130325814 0.0 1.0027756690979004 -3.997140083811246e-05
1.644110275689223 0.0 1.002565860748291 -5.6093176681315526e-05
1.6541353383458646 0.0 1.0023339986801147 -7.212263153633103e-05
1.6641604010025062 0.0 1.0020930767059326 -8.712682028999552e-05
1.6741854636591478 0.0 1.001854419708252 -0.00010025288065662608
1.6842105263157894 0.0 1.001627802848816 -0.00011078730312874541
1.694235588972431 0.0 1.0014208555221558 -0.00011821157386293635
1.7042606516290726 0.0 1.001239538192749 -0.0001222407736349851
1.7142857142857142 0.0 1.0010885000228882 -0.00012284234981052577
1.7243107769423558 0.0 1.0009713172912598 -0.00012022969167446718
1.7343358395989974 0.0 1.0008904933929443 -0.00011483052367111668
1.744360902255639 0.0 1.0008474588394165 -0.00010725863830884919
1.7543859649122806 0.0 1.0008419752120972 -9.825321467360482e-05
1.7644110275689222 0.0 1.0008723735809326 -8.861041715135798e-05
1.7744360902255638 0.0 1.0009349584579468 -7.911861030152068e-05
1.7844611528822054 0.0 1.0010242462158203 -7.049712439766154e-05
1.794486215538847 0.0 1.0011330842971802 -6.333455530693755e-05
1.8045112781954886 0.0 1.001253366470337 -5.8043133321916685e-05
1.8145363408521302 0.0 1.0013768672943115 -5.4844389524077997e-05
1.8245614035087718 0.0 1.0014958381652832 -5.3768129873787984e-05
1.8345864661654134 0.0 1.0016039609909058 -5.466930088005029e-05
1.844611528822055 0.0 1.0016969442367554 -5.7272463891422376e-05
1.8546365914786966 0.0 1.0017722845077515 -6.121207115938887e-05
1.8646616541353382 0.0 1.0018293857574463 -6.608160765608773e-05
1.8746867167919798 0.0 1.0018688440322876 -7.146791176637635e-05
1.8847117794486214 0.0 1.0018919706344604 -7.698285480728373e-05
1.894736842105263 0.0 1.0018999576568604 -8.227998478105292e-05
1.9047619047619047 0.0 1.0018938779830933 -8.706162770977244e-05
1.9147869674185463 0.0 1.0018744468688965 -9.10667804419063e-05
1.9248120300751879 0.0 1.0018423795700073 -9.407716424902901e-05
1.9348370927318295 0.0 1.0017987489700317 -9.59131502895616e-05
1.944862155388471 0.0 1.001745581626892 -9.642933582654223e-05
1.9548872180451127 0.0 1.0016865730285645 -9.553689596941695e-05
1.9649122807017543 0.0 1.0016266107559204 -9.322558616986498e-05
1.9749373433583959 0.0 1.001571536064148 -8.958248508861288e-05
1.9849624060150375 0.0 1.0015275478363037 -8.482028351863846e-05
1.994987468671679 0.0 1.001500129699707 -7.928776176413521e-05
2.0050125313283207 0.0 1.001492977142334 -7.34597779228352e-05
2.015037593984962 0.0 1.0015069246292114 -6.790082989027724e-05
2.025062656641604 0.0 1.0015395879745483 -6.32098744972609e-05
2.0350877192982457 0.0 1.0015850067138672 -5.994198363623582e-05
2.045112781954887 0.0 1.0016347169876099 -5.852194954059087e-05
2.0551378446115285 0.0 1.0016779899597168 -5.915303700021468e-05
2.0651629072681703 0.0 1.001704216003418 -6.176679016789421e-05
2.075187969924812 0.0 1.0017035007476807 -6.5994645410683e-05
2.0852130325814535 0.0 1.001668930053711 -7.11988759576343e-05
2.095238095238095 0.0 1.001597285270691 -7.654827641090378e-05
2.1052631578947367 0.0 1.0014898777008057 -8.114947559079155e-05
2.1152882205513786 0.0 1.001352071762085 -8.418058132519946e-05
2.12531328320802 0.0 1.0011930465698242 -8.50348369567655e-05
2.1353383458646613 0.0 1.0010243654251099 -8.340932981809601e-05
2.145363408521303 0.0 1.0008580684661865 -7.93559811427258e-05
2.155388471177945 0.0 1.000705599784851 -7.324999751290306e-05
2.1654135338345863 0.0 1.0005764961242676 -6.570512050529942e-05
2.1754385964912277 0.0 1.00047767162323 -5.7463967095827684e-05
2.1854636591478696 0.0 1.000413179397583 -4.9254940677201375e-05
2.1954887218045114 0.0 1.0003846883773804 -4.167898077866994e-05
2.2055137844611528 0.0 1.000391960144043 -3.513457704684697e-05
2.215538847117794 0.0 1.0004336833953857 -2.9779239412164316e-05
2.225563909774436 0.0 1.0005078315734863 -2.555569153628312e-05
2.235588972431078 0.0 1.000612497329712 -2.2264164726948366e-05
2.245614035087719 0.0 1.000745177268982 -1.9650757167255506e-05
2.2556390977443606 0.0 1.000902771949768 -1.7508831660961732e-05
2.2656641604010024 0.0 1.0010814666748047 -1.576260183355771e-05
2.275689223057644 0.0 1.001275897026062 -1.4502637895930093e-05
2.2857142857142856 0.0 1.001479148864746 -1.3981446500110906e-05
2.295739348370927 0.0 1.0016827583312988 -1.4558051589119714e-05
2.305764411027569 0.0 1.0018771886825562 -1.6603935364400968e-05
2.3157894736842106 0.0 1.0020521879196167 -2.0407456759130582e-05
2.325814536340852 0.0 1.0021979808807373 -2.607827991596423e-05
2.3358395989974934 0.0 1.0023058652877808 -3.348054815432988e-05
2.345864661654135 0.0 1.0023696422576904 -4.2233583371853456e-05
2.355889724310777 0.0 1.0023857355117798 -5.1738894399022684e-05
2.3659147869674184 0.0 1.0023540258407593 -6.126829975983128e-05
2.37593984962406 0.0 1.0022779703140259 -7.008326792856678e-05
2.3859649122807016 0.0 1.0021637678146362 -7.75480511947535e-05
2.3959899749373434 0.0 1.0020203590393066 -8.322166831931099e-05
2.406015037593985 0.0 1.0018583536148071 -8.691715629538521e-05
2.416040100250626 0.0 1.0016885995864868 -8.869330486049876e-05
2.426065162907268 0.0 1.001522421836853 -8.880389941623434e-05
2.43609022556391 0.0 1.001369595527649 -8.76207705005072e-05
2.4461152882205512 0.0 1.0012387037277222 -8.553169755032286e-05
2.4561403508771926 0.0 1.001136302947998 -8.286334195872769e-05
2.4661654135338344 0.0 1.001067042350769 -7.983770774444565e-05
2.4761904761904763 0.0 1.0010335445404053 -7.655665831407532e-05
2.4862155388471177 0.0 1.0010360479354858 -7.304254540940747e-05
2.496240601503759 0.0 1.0010732412338257 -6.929245864739642e-05
2.506265664160401 0.0 1.0011416673660278 -6.534097337862477e-05
2.5162907268170427 0.0 1.0012359619140625 -6.133291026344523e-05
2.526315789473684 0.0 1.001349687576294 -5.754056837758981e-05
2.5363408521303255 0.0 1.0014748573303223 -5.435509592643939e-05
2.5463659147869673 0.0 1.0016030073165894 -5.225473069003783e-05
2.556390977443609 0.0 1.001725435256958 -5.170932490727864e-05
2.5664160401002505 0.0 1.0018340349197388 -5.308931213221513e-05
2.576441102756892 0.0 1.0019221305847168 -5.6578628573333845e-05
2.5864661654135337 0.0 1.001984715461731 -6.20969440205954e-05
2.5964912280701755 0.0 1.0020192861557007 -6.92807006998919e-05
2.606516290726817 0.0 1.0020256042480469 -7.750823715468869e-05
2.6165413533834583 0.0 1.002005934715271 -8.598117710789666e-05
2.6265664160401 0.0 1.0019644498825073 -9.383956057718024e-05
2.636591478696742 0.0 1.001906394958496 -0.00010030340490629897
2.6466165413533833 0.0 1.001837968826294 -0.00010478737385710701
2.6566416040100247 0.0 1.001765251159668 -0.00010698448022594675
2.6666666666666665 0.0 1.0016934871673584 -0.00010688727343222126
2.6766917293233083 0.0 1.0016274452209473 -0.00010474744340172037
2.6867167919799497 0.0 1.0015705823898315 -0.00010098641359945759
2.696741854636591 0.0 1.00152587890625 -9.609068365534768e-05
2.706766917293233 0.0 1.0014952421188354 -9.050926746567711e-05
2.7167919799498748 0.0 1.001480221748352 -8.457918738713488e-05
2.726817042606516 0.0 1.0014816522598267 -7.851755799492821e-05
2.7368421052631575 0.0 1.0014994144439697 -7.242344872793183e-05
2.7468671679197993 0.0 1.0015323162078857 -6.634668534388766e-05
2.756892230576441 0.0 1.0015777349472046 -6.0344314988469705e-05
2.7669172932330826 0.0 1.0016316175460815 -5.4539497796213254e-05
2.776942355889724 0.0 1.0016884803771973 -4.9150166887557134e-05
2.7869674185463658 0.0 1.001741886138916 -4.4481679651653394e-05
2.7969924812030076 0.0 1.0017850399017334 -4.08882879128214e-05
2.807017543859649 0.0 1.0018119812011719 -3.8715512346243486e-05
2.8170426065162903 0.0 1.001818060874939 -3.822167855105363e-05
2.827067669172932 0.0 1.0018008947372437 -3.951295730075799e-05
2.837092731829574 0.0 1.0017609596252441 -4.2496798414504156e-05
2.8471177944862154 0.0 1.0017014741897583 -4.685829844675027e-05
2.8571428571428568 0.0 1.0016287565231323 -5.2084415074205026e-05
2.8671679197994986 0.0 1.001550555229187 -5.7514374930178747e-05
2.8771929824561404 0.0 1.0014759302139282 -6.244118412723765e-05
2.887218045112782 0.0 1.0014137029647827 -6.621397187700495e-05
2.897243107769423 0.0 1.0013713836669922 -6.835799285909161e-05
2.907268170426065 0.0 1.0013540983200073 -6.864425813546404e-05
2.917293233082707 0.0 1.0013642311096191 -6.712538743158802e-05
2.927318295739348 0.0 1.0014010667800903 -6.410603964468464e-05
2.9373433583959896 0.0 1.0014609098434448 -6.0056419897591695e-05
2.9473684210526314 0.0 1.0015382766723633 -5.550702553591691e-05
2.9573934837092732 0.0 1.0016266107559204 -5.0944359827553853e-05
2.9674185463659146 0.0 1.0017192363739014 -4.673780858865939e-05
2.977443609022556 0.0 1.0018101930618286 -4.3122297938680276e-05
2.987468671679198 0.0 1.0018949508666992 -4.0221460949396715e-05
2.9974937343358397 0.0 1.0019700527191162 -3.810281850746833e-05
3.007518796992481 0.0 1.0020335912704468 -3.684297189465724e-05
3.0175438596491224 0.0 1.0020840167999268 -3.656753324321471e-05
3.0275689223057642 0.0 1.0021202564239502 -3.746358197531663e-05
3.037593984962406 0.0 1.0021412372589111 -3.975335494033061e-05
3.0476190476190474 0.0 1.0021461248397827 -4.364814594737254e-05
3.057644110275689 0.0 1.0021342039108276 -4.9278922233497724e-05
3.0676691729323307 0.0 1.002105474472046 -5.6628687161719427e-05
3.0776942355889725 0.0 1.0020610094070435 -6.547869270434603e-05
3.087719298245614 0.0 1.0020030736923218 -7.537073543062434e-05
3.0977443609022552 0.0 1.0019347667694092 -8.561423601349816e-05
3.107769423558897 0.0 1.0018601417541504 -9.533072443446144e-05
3.117794486215539 0.0 1.0017834901809692 -0.00010355989070376381
3.1278195488721803 0.0 1.0017088651657104 -0.00010940661741187796
3.1378446115288217 0.0 1.0016400814056396 -0.00011221886234125122
3.1478696741854635 0.0 1.0015807151794434 -0.00011174039536854252
3.1578947368421053 0.0 1.0015336275100708 -0.00010820625902852044
3.1679197994987467 0.0 1.0015015602111816 -0.00010232763452222571
3.177944862155388 0.0 1.0014859437942505 -9.515295823803172e-05
3.18796992481203 0.0 1.0014877319335938 -8.785173849901184e-05
3.1979949874686717 0.0 1.0015064477920532 -8.145494939526543e-05
3.208020050125313 0.0 1.0015408992767334 -7.66529337852262e-05
3.2180451127819545 0.0 1.0015897750854492 -7.370459934463724e-05
3.2280701754385963 0.0 1.0016517639160156 -7.247199391713366e-05
3.238095238095238 0.0 1.001726508140564 -7.256559183588251e-05
3.2481203007518795 0.0 1.0018141269683838 -7.354324770858511e-05
3.258145363408521 0.0 1.0019150972366333 -7.507504051318392e-05
3.2681704260651627 0.0 1.0020289421081543 -7.704397285124287e-05
3.2781954887218046 0.0 1.0021535158157349 -7.953316526254639e-05
3.288220551378446 0.0 1.0022845268249512 -8.272946433862671e-05
3.2982456140350873 0.0 1.0024142265319824 -8.680982136866078e-05
3.308270676691729 0.0 1.0025326013565063 -9.181998757412657e-05
3.318295739348371 0.0 1.0026289224624634 -9.762073023011908e-05
3.3283208020050123 0.0 1.0026929378509521 -0.00010388562077423558
3.3383458646616537 0.0 1.0027176141738892 -0.00011012699542334303
3.3483709273182956 0.0 1.0026994943618774 -0.00011571888899197802
3.3583959899749374 0.0 1.0026394128799438 -0.00011990687198704109
3.3684210526315788 0.0 1.0025402307510376 -0.00012181829515611753
3.37844611528822 0.0 1.0024058818817139 -0.0001205172375193797
3.388471177944862 0.0 1.0022401809692383 -0.00011514694051584229
3.398496240601504 0.0 1.0020474195480347 -0.00010517445480218157
3.408521303258145 0.0 1.0018353462219238 -9.069192310562357e-05
3.4185463659147866 0.0 1.001617670059204 -7.266140164574608e-05
3.4285714285714284 0.0 1.0014179944992065 -5.298931137076579e-05
3.43859649122807 0.0 1.0012685060501099 -3.4328168112551793e-05
3.4486215538847116 0.0 1.0012052059173584 -1.9557741325115785e-05
3.458646616541353 0.0 1.001258373260498 -1.111343863158254e-05
3.468671679197995 0.0 1.0014426708221436 -1.0337646926927846e-05
3.4786967418546366 0.0 1.0017503499984741 -1.7122099961852655e-05
3.488721804511278 0.0 1.0021497011184692 -2.997388583025895e-05
3.4987468671679194 0.0 1.002590537071228 -4.6471450332319364e-05
3.508771929824561 0.0 1.0030137300491333 -6.394946103682742e-05
3.518796992481203 0.0 1.0033609867095947 -8.016949141165242e-05
3.5288220551378444 0.0 1.0035842657089233 -9.377564856549725e-05
3.538847117794486 0.0 1.0036520957946777 -0.00010441787162562832
3.5488721804511276 0.0 1.0035536289215088 -0.00011258207814535126
3.5588972431077694 0.0 1.0032988786697388 -0.00011917886877199635
3.568922305764411 0.0 1.002916932106018 -0.0001250790955964476
3.578947368421052 0.0 1.002451777458191 -0.0001307237835135311
3.588972431077694 0.0 1.0019563436508179 -0.0001359341258648783
3.598997493734336 0.0 1.001487374305725 -0.00013996163033880293
3.6090225563909772 0.0 1.0011004209518433 -0.00014175186515785754
3.6190476190476186 0.0 1.0008448362350464 -0.0001402969064656645
3.6290726817042605 0.0 1.0007597208023071 -0.00013497556210495532
3.6390977443609023 0.0 1.0008682012557983 -0.0001257477852050215
3.6491228070175437 0.0 1.001172423362732 -0.00011322015052428469
3.659147869674185 0.0 1.0016483068466187 -9.858138946583495e-05
3.669172932330827 0.0 1.002243995666504 -8.353424345841631e-05
3.6791979949874687 0.0 1.0028847455978394 -7.02406614436768e-05
3.68922305764411 0.0 1.0034825801849365 -6.125293293735012e-05
3.6992481203007515 0.0 1.0039528608322144 -5.932882413617335e-05
3.7092731829573933 0.0 1.0042318105697632 -6.700047379126772e-05
3.719298245614035 0.0 1.0042897462844849 -8.586918556829914e-05
3.7293233082706765 0.0 1.0041358470916748 -0.00011580410500755534
3.739348370927318 0.0 1.0038119554519653 -0.0001543389807920903
3.7493734335839597 0.0 1.003379225730896 -0.00019663068815134466
3.7593984962406015 0.0 1.0029014348983765 -0.0002361492661293596
3.769423558897243 0.0 1.0024293661117554 -0.00026600525598041713
3.7794486215538843 0.0 1.001991868019104 -0.0002804962859954685
3.789473684210526 0.0 1.0015910863876343 -0.00027639136533252895
3.799498746867168 0.0 1.001204490661621 -0.0002535829844418913
3.8095238095238093 0.0 1.0007917881011963 -0.00021496371482498944
3.8195488721804507 0.0 1.0003061294555664 -0.00016565973055548966
3.8295739348370925 0.0 0.999706506729126 -0.00011192433157702908
3.8395989974937343 0.0 0.9989696741104126 -6.0034068155800924e-05
3.8496240601503757 0.0 0.9980988502502441 -1.5436638932442293e-05
3.859649122807017 0.0 0.9971277117729187 1.7739283066475764e-05
3.869674185463659 0.0 0.9961198568344116 3.684373587020673e-05
3.8796992481203008 0.0 0.9951647520065308 4.072094816365279e-05
3.889724310776942 0.0 0.9943719506263733 2.965066596516408e-05
3.8997493734335835 0.0 0.9938647150993347 5.355720531952102e-06
3.9097744360902253 0.0 0.9937729239463806 -2.8959209885215387e-05
3.919799498746867 0.0 0.994224488735199 -6.85468185110949e-05
3.9298245614035086 0.0 0.9953351616859436 -0.00010709961497923359
3.93984962406015 0.0 0.9971970319747925 -0.00013691672938875854
3.9498746867167918 0.0 0.9998673796653748 -0.00014938352978788316
3.9598997493734336 0.0 1.0033586025238037 -0.00013592236791737378
3.969924812030075 0.0 1.0076320171356201 -8.939517283579335e-05
3.9799498746867163 0.0 1.0125937461853027 -5.771605174231809e-06
3.989974937343358 0.0 1.0180972814559937 0.00011438682122388855
4.0 0.0 1.023950457572937 0.00026517247897572815
0.0 0.010101010101010102 0.3050000071525574 -0.0003508318040985614
0.010025062656641603 0.010101010101010102 0.5600607991218567 -0.00026989003526978195
0.020050125313283207 0.010101010101010102 0.6935515999794006 -0.00021239658235572278
0.03007518796992481 0.010101010101010102 0.7653364539146423 -0.00011596196418395266
0.040100250626566414 0.010101010101010102 0.8092131614685059 -2.795757245621644e-05
0.05012531328320802 0.010101010101010102 0.8392134308815002 3.766248482861556e-05
0.06015037593984962 0.010101010101010102 0.8612467050552368 8.173593232640997e-05
0.07017543859649122 0.010101010101010102 0.8780376315116882 0.00010892764112213627
0.08020050125313283 0.010101010101010102 0.8910185694694519 0.00012378001702018082
0.09022556390977443 0.010101010101010102 0.9010735750198364 0.00012955794227309525
0.10025062656641603 0.010101010101010102 0.9088350534439087 0.00012821648851968348
0.11027568922305764 0.010101010101010102 0.914797842502594 0.00012081958266207948
0.12030075187969924 0.010101010101010102 0.919363260269165 0.00010802344331750646
0.13032581453634084 0.010101010101010102 0.9228586554527283 9.044077160069719e-05
0.14035087719298245 0.010101010101010102 0.9255502223968506 6.878333078930154e-05
0.15037593984962405 0.010101010101010102 0.9276561737060547 4.3828771595144644e-05
0.16040100250626566 0.010101010101010102 0.929358720779419 1.6242764104390517e-05
0.17042606516290726 0.010101010101010102 0.9308134913444519 -1.3595064046967309e-05
0.18045112781954886 0.010101010101010102 0.9321558475494385 -4.572289981297217e-05
0.19047619047619047 0.010101010101010102 0.9335029721260071 -8.063166023930535e-05
0.20050125313283207 0.010101010101010102 0.9349543452262878 -0.00011922392150154337
0.21052631578947367 0.010101010101010102 0.9365891218185425 -0.0001627079036552459
0.22055137844611528 0.010101010101010102 0.9384637475013733 -0.00021244920208118856
0.23057644110275688 0.010101010101010102 0.9406099319458008 -0.0002698021417018026
0.24060150375939848 0.010101010101010102 0.9430336952209473 -0.0003359162656124681
0.2506265664160401 0.010101010101010102 0.9457172155380249 -0.0004115565971005708
0.2606516290726817 0.010101010101010102 0.9486226439476013 -0.0004969181609340012
0.2706766917293233 0.010101010101010102 0.951697826385498 -0.0005914875073358417
0.2807017543859649 0.010101010101010102 0.9548827409744263 -0.0006939425365999341
0.2907268170426065 0.010101010101010102 0.9581156373023987 -0.0008021085523068905
0.3007518796992481 0.010101010101010102 0.9613381028175354 -0.0009129767422564328
0.3107769423558897 0.010101010101010102 0.964497983455658 -0.0010227903258055449
0.3208020050125313 0.010101010101010102 0.9675506353378296 -0.0011271887924522161
0.3308270676691729 0.010101010101010102 0.9704588651657104 -0.001221418147906661
0.3408521303258145 0.010101010101010102 0.9731923341751099 -0.0013005774235352874
0.3508771929824561 0.010101010101010102 0.9757262468338013 -0.001359915011562407
0.3609022556390977 0.010101010101010102 0.9780410528182983 -0.001395117724314332
0.37092731829573933 0.010101010101010102 0.9801219701766968 -0.0014026177814230323
0.38095238095238093 0.010101010101010102 0.9819605946540833 -0.001379858935251832
0.39097744360902253 0.010101010101010102 0.9835563898086548 -0.0013255415251478553
0.40100250626566414 0.010101010101010102 0.9849191904067993 -0.001239799428731203
0.41102756892230574 0.010101010101010102 0.9860702753067017 -0.0011242999462410808
0.42105263157894735 0.010101010101010102 0.9870429635047913 -0.0009822372812777758
0.43107769423558895 0.010101010101010102 0.9878801107406616 -0.0008181828889064491
0.44110275689223055 0.010101010101010102 0.9886303544044495 -0.0006378180114552379
0.45112781954887216 0.010101010101010102 0.989342987537384 -0.00044753841939382255
0.46115288220551376 0.010101010101010102 0.9900615215301514 -0.00025399934384040534
0.47117794486215536 0.010101010101010102 0.9908189177513123 -6.364189175656065e-05
0.48120300751879697 0.010101010101010102 0.9916333556175232 0.00011773015285143629