TITLE = "Vortex Convect"
VARIABLES = "X", "Y", "u", "v", "Vorticity"
ZONE T="BIG ZONE", I=400, J=100, DATAPACKING=POINT
0.0 0.0 0.25 0.0 0.0
0.01 0.0 1.000000723281339 -8.125341658585548e-07 0.0
0.02 0.0 1.0000010397981862 -1.1863859594460092e-06 0.0
0.03 0.0 1.0000014932290429 -1.7237337373215856e-06 0.0
0.04 0.0 1.0000021407427897 -2.490088419761177e-06 0.0
0.05 0.0 1.0000030616311124 -3.573805808188441e-06 0.0
0.060000000000000005 0.0 1.0000043647830734 -5.092414733652423e-06 0.0
0.07 0.0 1.0000061981443829 -7.200001835237523e-06 0.0
0.08 0.0 1.0000087604572394 -1.009554568248439e-05 0.0
0.09 0.0 1.000012315526108 -1.4031947725931561e-05 0.0
0.09999999999999999 0.0 1.000017209155967 -1.932532007192735e-05 0.0
0.10999999999999999 0.0 1.0000238887503032 -2.636386296464113e-05 0.0
0.11999999999999998 0.0 1.0000329253260485 -3.561540718540862e-05 0.0
0.12999999999999998 0.0 1.000045037395066 -4.7632425481516645e-05 0.0
0.13999999999999999 0.0 1.0000611157763886 -6.305305894392339e-05 0.0
0.15 0.0 1.0000822479488665 -8.25964947033921e-05 0.0
0.16 0.0 1.0001097400505299 -0.0001070509144182893 0.0
0.17 0.0 1.0001451341128618 -0.00013725225822524932 0.0
0.18000000000000002 0.0 1.0001902176338915 -0.0001740522662084011 0.0
0.19000000000000003 0.0 1.0002470222060869 -0.0002182747130744986 0.0
0.20000000000000004 0.0 1.0003178076968433 -0.00027065947140532317 0.0
0.21000000000000005 0.0 1.0004050285098791 -0.0003317950311432392 0.0
0.22000000000000006 0.0 1.0005112788114163 -0.0004020413425251288 0.0
0.23000000000000007 0.0 1.0006392143491831 -0.0004814462725746921 0.0
0.24000000000000007 0.0 1.0007914496639412 -0.0005696604657344817 0.0
0.25000000000000006 0.0 1.0009704310946757 -0.0006658568316012961 0.0
0.26000000000000006 0.0 1.001178287964882 -0.00076866206967999 0.0
0.2700000000000001 0.0 1.0014166666093611 -0.0008761083886182385 0.0
0.2800000000000001 0.0 1.0016865543030784 -0.0009856136962841419 0.0
0.2900000000000001 0.0 1.0019881024795014 -0.0010939978687966396 0.0
0.3000000000000001 0.0 1.0023204606306295 -0.001197541151270878 0.0
0.3100000000000001 0.0 1.0026816337027187 -0.0012920882850292277 0.0
0.3200000000000001 0.0 1.0030683763886672 -0.0013731986836366704 0.0
0.3300000000000001 0.0 1.003476137260313 -0.0014363390943734314 0.0
0.34000000000000014 0.0 1.0038990640459213 -0.0014771109913473712 0.0
0.35000000000000014 0.0 1.0043300785072025 -0.0014915008468690681 0.0
0.36000000000000015 0.0 1.0047610253966648 -0.0014761378650185947 0.0
0.37000000000000016 0.0 1.0051828951013873 -0.0014285411833878953 0.0
0.38000000000000017 0.0 1.0055861141481726 -0.0013473373494900652 0.0
0.3900000000000002 0.0 1.0059608922018355 -0.0012324293408304825 0.0
0.4000000000000002 0.0 1.006297609037742 -0.0010851006476062194 0.0
0.4100000000000002 0.0 1.0065872207256032 -0.0009080419098723481 0.0
0.4200000000000002 0.0 1.0068216613901033 -0.0007052930324064091 0.0
0.4300000000000002 0.0 1.0069942157773475 -0.00048210014211115553 0.0
0.4400000000000002 0.0 1.0070998386643972 -0.00024469361378752085 0.0
0.45000000000000023 0.0 1.0071353999277801 5.461456685658915e-18 0.0
0.46000000000000024 0.0 1.0070998386643972 0.00024469361378753163 0.0
0.47000000000000025 0.0 1.0069942157773475 0.00048210014211116627 0.0
0.48000000000000026 0.0 1.0068216613901033 0.0007052930324064188 0.0
0.49000000000000027 0.0 1.0065872207256032 0.0009080419098723564 0.0
0.5000000000000002 0.0 1.006297609037742 0.001085100647606226 0.0
0.5100000000000002 0.0 1.0059608922018355 0.001232429340830485 0.0
0.5200000000000002 0.0 1.0055861141481726 0.001347337349490069 0.0
0.5300000000000002 0.0 1.0051828951013873 0.0014285411833878969 0.0
0.5400000000000003 0.0 1.0047610253966648 0.001476137865018597 0.0
0.5500000000000003 0.0 1.0043300785072025 0.0014915008468690703 0.0
0.5600000000000003 0.0 1.0038990640459213 0.0014771109913473725 0.0
0.5700000000000003 0.0 1.003476137260313 0.0014363390943734284 0.0
0.5800000000000003 0.0 1.0030683763886672 0.001373198683636666 0.0
0.5900000000000003 0.0 1.0026816337027187 0.0012920882850292255 0.0
0.6000000000000003 0.0 1.0023204606306295 0.0011975411512708757 0.0
0.6100000000000003 0.0 1.0019881024795014 0.0010939978687966362 0.0
0.6200000000000003 0.0 1.0016865543030784 0.000985613696284137 0.0
0.6300000000000003 0.0 1.0014166666093611 0.0008761083886182349 0.0
0.6400000000000003 0.0 1.001178287964882 0.0007686620696799875 0.0
0.6500000000000004 0.0 1.0009704310946757 0.0006658568316012921 0.0
0.6600000000000004 0.0 1.0007914496639412 0.0005696604657344784 0.0
0.6700000000000004 0.0 1.0006392143491831 0.0004814462725746884 0.0
0.6800000000000004 0.0 1.0005112788114163 0.0004020413425251264 0.0
0.6900000000000004 0.0 1.0004050285098791 0.00033179503114323715 0.0
0.7000000000000004 0.0 1.0003178076968433 0.00027065947140532084 0.0
0.7100000000000004 0.0 1.0002470222060869 0.00021827471307449658 0.0
0.7200000000000004 0.0 1.0001902176338915 0.00017405226620839992 0.0
0.7300000000000004 0.0 1.0001451341128618 0.00013725225822524802 0.0
0.7400000000000004 0.0 1.0001097400505299 0.00010705091441828831 0.0
0.7500000000000004 0.0 1.0000822479488665 8.25964947033912e-05 0.0
0.7600000000000005 0.0 1.0000611157763886 6.305305894392257e-05 0.0
0.7700000000000005 0.0 1.000045037395066 4.7632425481516204e-05 0.0
0.7800000000000005 0.0 1.0000329253260485 3.56154071854081e-05 0.0
0.7900000000000005 0.0 1.0000238887503032 2.636386296464075e-05 0.0
0.8000000000000005 0.0 1.000017209155967 1.9325320071927067e-05 0.0
0.8100000000000005 0.0 1.000012315526108 1.403194772593136e-05 0.0
0.8200000000000005 0.0 1.0000087604572394 1.0095545682484195e-05 0.0
0.8300000000000005 0.0 1.0000061981443829 7.200001835237382e-06 0.0
0.8400000000000005 0.0 1.0000043647830734 5.092414733652342e-06 0.0
0.8500000000000005 0.0 1.0000030616311124 3.573805808188385e-06 0.0
0.8600000000000005 0.0 1.0000021407427897 2.490088419761139e-06 0.0
0.8700000000000006 0.0 1.0000014932290429 1.7237337373215498e-06 0.0
0.8800000000000006 0.0 1.0000010397981862 1.1863859594459819e-06 0.0
0.8900000000000006 0.0 1.000000723281339 8.125341658585372e-07 0.0
0.9000000000000006 0.0 1.0000005028323977 5.542431114165555e-07 0.0
0.9100000000000006 0.0 1.0000003495032306 3.7687562887633515e-07 0.0
0.9200000000000006 0.0 1.0000002429214025 2.5569858157342075e-07 0.0
0.9300000000000006 0.0 1.0000001688326607 1.7324573825388398e-07 0.0
0.9400000000000006 0.0 1.0000001173081792 1.173081792200473e-07 0.0
0.9500000000000006 0.0 1.0000000814533916 7.943041030410671e-08 0.0
0.9600000000000006 0.0 1.000000056488812 5.380386587829178e-08 0.0
0.9700000000000006 0.0 1.0000000391023534 3.6465634922399e-08 0.0
0.9800000000000006 0.0 1.0000000269969123 2.472676068118744e-08 0.0
0.9900000000000007 0.0 1.0000000185765485 1.6769900833725555e-08 0.0
1.0000000000000007 0.0 1.0000000127298911 1.1369701104913765e-08 0.0
1.0100000000000007 0.0 1.0000000086810779 7.700613301580504e-09 0.0
1.0200000000000007 0.0 1.00000000588725 5.206076378175674e-09 0.0
1.0300000000000007 0.0 1.0000000039679573 3.510162444819238e-09 0.0
1.0400000000000007 0.0 1.0000000026563853 2.3582490305744515e-09 0.0
1.0500000000000007 0.0 1.0000000017654977 1.5773240433426982e-09 0.0
1.0600000000000007 0.0 1.00000000116441 1.0494586685037435e-09 0.0
1.0700000000000007 0.0 1.0000000007618048 6.940596745475415e-10 0.0
1.0800000000000007 0.0 1.0000000004942433 4.5595632748152474e-10 0.0
1.0900000000000007 0.0 1.000000000317892 2.9736372719875675e-10 0.0
1.1000000000000008 0.0 1.000000000202656 1.9242836889388874e-10 0.0
1.1100000000000008 0.0 1.0000000001280256 1.2350289963969593e-10 0.0
1.1200000000000008 0.0 1.000000000080135 7.858728567454847e-11 0.0
1.1300000000000008 0.0 1.000000000049691 4.956336950721697e-11 0.0
1.1400000000000008 0.0 1.000000000030522 3.097361304700082e-11 0.0
1.1500000000000008 0.0 1.0000000000185694 1.9175825736600447e-11 0.0
1.1600000000000008 0.0 1.0000000000111886 1.1759061338425188e-11 0.0
1.1700000000000008 0.0 1.0000000000066767 7.141455520867613e-12 0.0
1.1800000000000008 0.0 1.0000000000039453 4.294840387082103e-12 0.0
1.1900000000000008 0.0 1.0000000000023086 2.557489444231436e-12 0.0
1.2000000000000008 0.0 1.0000000000013378 1.5078405825107011e-12 0.0
1.2100000000000009 0.0 1.0000000000007674 8.8012930605946e-13 0.0
1.2200000000000009 0.0 1.0000000000004359 5.085890896949043e-13 0.0
1.2300000000000009 0.0 1.0000000000002451 2.9093867098652417e-13 0.0
1.2400000000000009 0.0 1.0000000000001366 1.6475461155878336e-13 0.0
1.2500000000000009 0.0 1.0000000000000753 9.235621699384626e-14 0.0
1.260000000000001 0.0 1.000000000000041 5.1248378212314704e-14 0.0
1.270000000000001 0.0 1.0000000000000222 2.814974156192233e-14 0.0
1.280000000000001 0.0 1.000000000000012 1.5305423066172708e-14 0.0
1.290000000000001 0.0 1.0000000000000062 8.237405449602886e-15 0.0
1.300000000000001 0.0 1.0000000000000033 4.388420235412524e-15 0.0
1.310000000000001 0.0 1.0000000000000018 2.314183937978782e-15 0.0
1.320000000000001 0.0 1.0000000000000009 1.2079786882526137e-15 0.0
1.330000000000001 0.0 1.0000000000000004 6.241553513114729e-16 0.0
1.340000000000001 0.0 1.0000000000000002 3.1922640899135384e-16 0.0
1.350000000000001 0.0 1.0000000000000002 1.6161384123718488e-16 0.0
1.360000000000001 0.0 1.0 8.099031127706143e-17 0.0
1.370000000000001 0.0 1.0 4.0175719698331424e-17 0.0
1.380000000000001 0.0 1.0 1.972748696038773e-17 0.0
1.390000000000001 0.0 1.0 9.58868092612497e-18 0.0
1.400000000000001 0.0 1.0 4.613457502746991e-18 0.0
1.410000000000001 0.0 1.0 2.1972340432463965e-18 0.0
1.420000000000001 0.0 1.0 1.0358809527225562e-18 0.0
1.430000000000001 0.0 1.0 4.8342455388177715e-19 0.0
1.440000000000001 0.0 1.0 2.233235264463415e-19 0.0
1.450000000000001 0.0 1.0 1.0212421468215711e-19 0.0
1.460000000000001 0.0 1.0 4.6228841006034713e-20 0.0
1.470000000000001 0.0 1.0 2.071518501118882e-20 0.0
1.480000000000001 0.0 1.0 9.18877554203406e-21 0.0
1.490000000000001 0.0 1.0 4.03478995180326e-21 0.0
1.500000000000001 0.0 1.0 1.753800092118931e-21 0.0
1.5100000000000011 0.0 1.0 7.546342094971529e-22 0.0
1.5200000000000011 0.0 1.0 3.2143374375449623e-22 0.0
1.5300000000000011 0.0 1.0 1.3553339539648017e-22 0.0
1.5400000000000011 0.0 1.0 5.657210054826201e-23 0.0
1.5500000000000012 0.0 1.0 2.3375485955878084e-23 0.0
1.5600000000000012 0.0 1.0 9.561423103143488e-24 0.0
1.5700000000000012 0.0 1.0 3.8715878806671966e-24 0.0
1.5800000000000012 0.0 1.0 1.5518920958957874e-24 0.0
1.5900000000000012 0.0 1.0 6.158016090120295e-25 0.0
1.6000000000000012 0.0 1.0 2.4189565528148013e-25 0.0
1.6100000000000012 0.0 1.0 9.406418299759175e-26 0.0
1.6200000000000012 0.0 1.0 3.621016207063817e-26 0.0
1.6300000000000012 0.0 1.0 1.3798998629133464e-26 0.0
1.6400000000000012 0.0 1.0 5.2056687419676835e-27 0.0
1.6500000000000012 0.0 1.0 1.9440984111889766e-27 0.0
1.6600000000000013 0.0 1.0 7.187429536448206e-28 0.0
1.6700000000000013 0.0 1.0 2.6305311315572253e-28 0.0
1.6800000000000013 0.0 1.0 9.530783661075075e-29 0.0
1.6900000000000013 0.0 1.0 3.4184552737954077e-29 0.0
1.7000000000000013 0.0 1.0 1.2138027003847499e-29 0.0
1.7100000000000013 0.0 1.0 4.266619987153813e-30 0.0
1.7200000000000013 0.0 1.0 1.4846983756113471e-30 0.0
1.7300000000000013 0.0 1.0 5.114599447003486e-31 0.0
1.7400000000000013 0.0 1.0 1.7442343862467194e-31 0.0
1.7500000000000013 0.0 1.0 5.888688247767542e-32 0.0
1.7600000000000013 0.0 1.0 1.96812847824448e-32 0.0
1.7700000000000014 0.0 1.0 6.511936170987496e-33 0.0
1.7800000000000014 0.0 1.0 2.1329921538877196e-33 0.0
1.7900000000000014 0.0 1.0 6.916580311637588e-34 0.0
1.8000000000000014 0.0 1.0 2.22032846903097e-34 0.0
1.8100000000000014 0.0 1.0 7.056140936121805e-35 0.0
1.8200000000000014 0.0 1.0 2.2199441328961018e-35 0.0
1.8300000000000014 0.0 1.0 6.914203734510155e-36 0.0
1.8400000000000014 0.0 1.0 2.131906548802297e-36 0.0
1.8500000000000014 0.0 1.0 6.507595363128823e-37 0.0
1.8600000000000014 0.0 1.0 1.9665265467391945e-37 0.0
1.8700000000000014 0.0 1.0 5.883103343833012e-38 0.0
1.8800000000000014 0.0 1.0 1.742372536363616e-38 0.0
1.8900000000000015 0.0 1.0 5.1086235957352964e-39 0.0
1.9000000000000015 0.0 1.0 1.4828444714826224e-39 0.0
1.9100000000000015 0.0 1.0 4.2610493024373605e-40 0.0
1.9200000000000015 0.0 1.0 1.2121802816135988e-40 0.0
1.9300000000000015 0.0 1.0 3.413878017316158e-41 0.0
1.9400000000000015 0.0 1.0 9.51829871574462e-42 0.0
1.9500000000000015 0.0 1.0 2.627251314678362e-42 0.0
1.9600000000000015 0.0 1.0 7.179186943271374e-43 0.0
1.9700000000000015 0.0 1.0 1.9421405413632027e-43 0.0
1.9800000000000015 0.0 1.0 5.201375110925522e-44 0.0
1.9900000000000015 0.0 1.0 1.379075995696218e-44 0.0
2.0000000000000013 0.0 1.0 3.619854305379502e-45 0.0
2.010000000000001 0.0 1.0 9.406481548113687e-46 0.0
2.020000000000001 0.0 1.0 2.419897098643634e-46 0.0
2.0300000000000007 0.0 1.0 6.163118320253227e-47 0.0
2.0400000000000005 0.0 1.0 1.5539547267907325e-47 0.0
2.0500000000000003 0.0 1.0 3.878919752615497e-48 0.0
2.06 0.0 1.0 9.585574013131437e-49 0.0
2.07 0.0 1.0 2.3450962093454637e-49 0.0
2.0799999999999996 0.0 1.0 5.67987425405277e-50 0.0
2.0899999999999994 0.0 1.0 1.3619231250055424e-50 0.0
2.099999999999999 0.0 1.0 3.232976724039684e-51 0.0
2.109999999999999 0.0 1.0 7.597819296814467e-52 0.0
2.1199999999999988 0.0 1.0 1.7677140885994896e-52 0.0
2.1299999999999986 0.0 1.0 4.0716650399197587e-53 0.0
2.1399999999999983 0.0 1.0 9.28473024564562e-54 0.0
2.149999999999998 0.0 1.0 2.0960615465127393e-54 0.0
2.159999999999998 0.0 1.0 4.68464325007426e-55 0.0
2.1699999999999977 0.0 1.0 1.0365422866014676e-55 0.0
2.1799999999999975 0.0 1.0 2.270574636045936e-56 0.0
2.1899999999999973 0.0 1.0 4.9240566695590295e-57 0.0
2.199999999999997 0.0 1.0 1.0571802599948058e-57 0.0
2.209999999999997 0.0 1.0 2.247056673928274e-58 0.0
2.2199999999999966 0.0 1.0 4.72844362973421e-59 0.0
2.2299999999999964 0.0 1.0 9.850580886453909e-60 0.0
2.239999999999996 0.0 1.0 2.0316323757061105e-60 0.0
2.249999999999996 0.0 1.0 4.148282121381223e-61 0.0
2.259999999999996 0.0 1.0 8.385549649369038e-62 0.0
2.2699999999999956 0.0 1.0 1.6781666451417726e-62 0.0
2.2799999999999954 0.0 1.0 3.324904239181338e-63 0.0
2.289999999999995 0.0 1.0 6.521746404074574e-64 0.0
2.299999999999995 0.0 1.0 1.2664544689711375e-64 0.0
2.3099999999999947 0.0 1.0 2.434761114962351e-65 0.0
2.3199999999999945 0.0 1.0 4.634089613286083e-66 0.0
2.3299999999999943 0.0 1.0 8.732005111107137e-67 0.0
2.339999999999994 0.0 1.0 1.628940428425576e-67 0.0
2.349999999999994 0.0 1.0 3.008418648193423e-68 0.0
2.3599999999999937 0.0 1.0 5.500641859218115e-69 0.0
2.3699999999999934 0.0 1.0 9.957049576068101e-70 0.0
2.3799999999999932 0.0 1.0 1.7843923160733633e-70 0.0
2.389999999999993 0.0 1.0 3.165866253085746e-71 0.0
2.399999999999993 0.0 1.0 5.560802784315969e-72 0.0
2.4099999999999926 0.0 1.0 9.669973776462444e-73 0.0
2.4199999999999924 0.0 1.0 1.664777257414645e-73 0.0
2.429999999999992 0.0 1.0 2.8374627241701782e-74 0.0
2.439999999999992 0.0 1.0 4.78792725508908e-75 0.0
2.4499999999999917 0.0 1.0 7.998497667250711e-76 0.0
2.4599999999999915 0.0 1.0 1.3228571603506443e-76 0.0
2.4699999999999913 0.0 1.0 2.166014107318883e-77 0.0
2.479999999999991 0.0 1.0 3.511183711576243e-78 0.0
2.489999999999991 0.0 1.0 5.634947992911785e-79 0.0
2.4999999999999907 0.0 1.0 8.953039455632354e-80 0.0
2.5099999999999905 0.0 1.0 1.4083008788198846e-80 0.0
2.5199999999999902 0.0 1.0 2.193132667245717e-81 0.0
2.52999999999999 0.0 1.0 3.3812633179006564e-82 0.0
2.53999999999999 0.0 1.0 5.1610474216158546e-83 0.0
2.5499999999999896 0.0 1.0 7.7990481771130525e-84 0.0
2.5599999999999894 0.0 1.0 1.1667837752325802e-84 0.0
2.569999999999989 0.0 1.0 1.7281614375663568e-85 0.0
2.579999999999989 0.0 1.0 2.5340986214180534e-86 0.0
2.5899999999999888 0.0 1.0 3.678816376262547e-87 0.0
2.5999999999999885 0.0 1.0 5.287352013836878e-88 0.0
2.6099999999999883 0.0 1.0 7.523396887362219e-89 0.0
2.619999999999988 0.0 1.0 1.0598281996880093e-89 0.0
2.629999999999988 0.0 1.0 1.4780966520142357e-90 0.0
2.6399999999999877 0.0 1.0 2.0408739055461203e-91 0.0
2.6499999999999875 0.0 1.0 2.7898162571568172e-92 0.0
2.6599999999999873 0.0 1.0 3.7755586953549234e-93 0.0
2.669999999999987 0.0 1.0 5.058632818691909e-94 0.0
2.679999999999987 0.0 1.0 6.710138740797357e-95 0.0
2.6899999999999866 0.0 1.0 8.812037947612855e-96 0.0
2.6999999999999864 0.0 1.0 1.1456918846507362e-96 0.0
2.709999999999986 0.0 1.0 1.4747079987237856e-97 0.0
2.719999999999986 0.0 1.0 1.8792781130784315e-98 0.0
2.7299999999999858 0.0 1.0 2.3709532752664703e-99 0.0
2.7399999999999856 0.0 1.0 2.961433274156956e-100 0.0
2.7499999999999853 0.0 1.0 3.662081630107537e-101 0.0
2.759999999999985 0.0 1.0 4.4833360928441755e-102 0.0
2.769999999999985 0.0 1.0 5.434028018154724e-103 0.0
2.7799999999999847 0.0 1.0 6.520634264935903e-104 0.0
2.7899999999999845 0.0 1.0 7.74649585529578e-105 0.0
2.7999999999999843 0.0 1.0 9.111047603096112e-106 0.0
2.809999999999984 0.0 1.0 1.0609111125458252e-106 0.0
2.819999999999984 0.0 1.0 1.2230308948545651e-107 0.0
2.8299999999999836 0.0 1.0 1.3958658729304564e-108 0.0
2.8399999999999834 0.0 1.0 1.5772403092704981e-109 0.0
2.849999999999983 0.0 1.0 1.764412175221388e-110 0.0
2.859999999999983 0.0 1.0 1.954115844862078e-111 0.0
2.869999999999983 0.0 1.0 2.14263763804517e-112 0.0
2.8799999999999826 0.0 1.0 2.3259233356209924e-113 0.0
2.8899999999999824 0.0 1.0 2.499714354614712e-114 0.0
2.899999999999982 0.0 1.0 2.6597068515484635e-115 0.0
2.909999999999982 0.0 1.0 2.8017258452300016e-116 0.0
2.9199999999999817 0.0 1.0 2.9219047398889192e-117 0.0
2.9299999999999815 0.0 1.0 3.0168595802942515e-118 0.0
2.9399999999999813 0.0 1.0 3.08384712423721e-119 0.0
2.949999999999981 0.0 1.0 3.12089644361831e-120 0.0
2.959999999999981 0.0 1.0 3.126905248150673e-121 0.0
2.9699999999999807 0.0 1.0 3.101694363216579e-122 0.0
2.9799999999999804 0.0 1.0 3.046016604939019e-123 0.0
2.9899999999999802 0.0 1.0 2.961519439056668e-124 0.0
2.99999999999998 0.0 1.0 2.8506640080272804e-125 0.0
3.00999999999998 0.0 1.0 2.716606079447297e-126 0.0
3.0199999999999796 0.0 1.0 2.5630469494992887e-127 0.0
3.0299999999999794 0.0 1.0 2.3940641212529674e-128 0.0
3.039999999999979 0.0 1.0 2.2139325357848714e-129 0.0
3.049999999999979 0.0 1.0 2.026947215813444e-130 0.0
3.0599999999999787 0.0 1.0 1.8372574248949783e-131 0.0
3.0699999999999785 0.0 1.0 1.64872096632619e-132 0.0
3.0799999999999783 0.0 1.0 1.4647852219822111e-133 0.0
3.089999999999978 0.0 1.0 1.2883991780497266e-134 0.0
3.099999999999978 0.0 1.0 1.1219582305774408e-135 0.0
3.1099999999999777 0.0 1.0 9.672812257922008e-137 0.0
3.1199999999999775 0.0 1.0 8.256171520879583e-138 0.0
3.1299999999999772 0.0 1.0 6.976772981866172e-139 0.0
3.139999999999977 0.0 1.0 5.836876043439857e-140 0.0
3.149999999999977 0.0 1.0 4.8345538232666366e-141 0.0
3.1599999999999766 0.0 1.0 3.96444534805398e-142 0.0
3.1699999999999764 0.0 1.0 3.2185379372214004e-143 0.0
3.179999999999976 0.0 1.0 2.586932197388205e-144 0.0
3.189999999999976 0.0 1.0 2.0585514692064213e-145 0.0
3.1999999999999758 0.0 1.0 1.6217680391437115e-146 0.0
3.2099999999999755 0.0 1.0 1.26492891714747e-147 0.0
3.2199999999999753 0.0 1.0 9.767736445507938e-149 0.0
3.229999999999975 0.0 1.0 7.467448302218939e-150 0.0
3.239999999999975 0.0 1.0 5.651985604355567e-151 0.0
3.2499999999999747 0.0 1.0 4.235263645531577e-152 0.0
3.2599999999999745 0.0 1.0 3.142031136107386e-153 0.0
3.2699999999999743 0.0 1.0 2.3077629579941248e-154 0.0
3.279999999999974 0.0 1.0 1.678118558627637e-155 0.0
3.289999999999974 0.0 1.0 1.2081054928721576e-156 0.0
3.2999999999999736 0.0 1.0 8.61068895348193e-158 0.0
3.3099999999999734 0.0 1.0 6.076056653619421e-159 0.0
3.319999999999973 0.0 1.0 4.244794257066641e-160 0.0
3.329999999999973 0.0 1.0 2.935907974926994e-161 0.0
3.3399999999999728 0.0 1.0 2.0103850254087586e-162 0.0
3.3499999999999726 0.0 1.0 1.3629097428560176e-163 0.0
3.3599999999999723 0.0 1.0 9.147576482615922e-165 0.0
3.369999999999972 0.0 1.0 6.07849612382273e-166 0.0
3.379999999999972 0.0 1.0 3.9988712716448284e-167 0.0
3.3899999999999717 0.0 1.0 2.604533403458735e-168 0.0
3.3999999999999715 0.0 1.0 1.6794756434124177e-169 0.0
3.4099999999999713 0.0 1.0 1.0721827123226857e-170 0.0
3.419999999999971 0.0 1.0 6.776652952136611e-172 0.0
3.429999999999971 0.0 1.0 4.2404611099629e-173 0.0
3.4399999999999706 0.0 1.0 2.627013834086123e-174 0.0
3.4499999999999704 0.0 1.0 1.611250670080644e-175 0.0
3.45999999999997 0.0 1.0 9.783975979481035e-177 0.0
3.46999999999997 0.0 1.0 5.881921168591965e-178 0.0
3.47999999999997 0.0 1.0 3.500858967244981e-179 0.0
3.4899999999999696 0.0 1.0 2.062916567821219e-180 0.0
3.4999999999999694 0.0 1.0 1.2034841716366198e-181 0.0
3.509999999999969 0.0 1.0 6.951056363333827e-183 0.0
3.519999999999969 0.0 1.0 3.9747789666452657e-184 0.0
3.5299999999999687 0.0 1.0 2.2502301459075097e-185 0.0
3.5399999999999685 0.0 1.0 1.2612254138613204e-186 0.0
3.5499999999999683 0.0 1.0 6.998586638492206e-188 0.0
3.559999999999968 0.0 1.0 3.8448541008200076e-189 0.0
3.569999999999968 0.0 1.0 2.0912276485036146e-190 0.0
3.5799999999999677 0.0 1.0 1.1260941996768559e-191 0.0
3.5899999999999674 0.0 1.0 6.003439345279123e-193 0.0
3.5999999999999672 0.0 1.0 3.1686740233136417e-194 0.0
3.609999999999967 0.0 1.0 1.655796897798561e-195 0.0
3.619999999999967 0.0 1.0 8.566208956912839e-197 0.0
3.6299999999999666 0.0 1.0 4.387553196813157e-198 0.0
3.6399999999999664 0.0 1.0 2.224888702964673e-199 0.0
3.649999999999966 0.0 1.0 1.1169825385226131e-200 0.0
3.659999999999966 0.0 1.0 5.551836997692333e-202 0.0
3.6699999999999657 0.0 1.0 2.7319911687691105e-203 0.0
3.6799999999999655 0.0 1.0 1.3309880888066002e-204 0.0
3.6899999999999653 0.0 1.0 6.419798123064609e-206 0.0
3.699999999999965 0.0 1.0 3.0656384171232046e-207 0.0
3.709999999999965 0.0 1.0 1.4493486646735435e-208 0.0
3.7199999999999647 0.0 1.0 6.783865622976193e-210 0.0
3.7299999999999645 0.0 1.0 3.1436489736779405e-211 0.0
3.7399999999999642 0.0 1.0 1.4422592470205208e-212 0.0
3.749999999999964 0.0 1.0 6.55096267564186e-214 0.0
3.759999999999964 0.0 1.0 2.945909859323063e-215 0.0
3.7699999999999636 0.0 1.0 1.3115545178559902e-216 0.0
3.7799999999999634 0.0 1.0 5.781038149899823e-218 0.0
3.789999999999963 0.0 1.0 2.5227716686619342e-219 0.0
3.799999999999963 0.0 1.0 1.0899402863108593e-220 0.0
3.8099999999999627 0.0 1.0 4.662084530636311e-222 0.0
3.8199999999999625 0.0 1.0 1.974287009988228e-223 0.0
3.8299999999999623 0.0 1.0 8.277385192078341e-225 0.0
3.839999999999962 0.0 1.0 3.435807346617776e-226 0.0
3.849999999999962 0.0 1.0 1.411943211059985e-227 0.0
3.8599999999999617 0.0 1.0 5.744582477132765e-229 0.0
3.8699999999999615 0.0 1.0 2.3139424270720744e-230 0.0
3.8799999999999613 0.0 1.0 9.227828098305142e-232 0.0
3.889999999999961 0.0 1.0 3.6433369180445554e-233 0.0
3.899999999999961 0.0 1.0 1.4241380549069483e-234 0.0
3.9099999999999606 0.0 1.0 5.511347463439386e-236 0.0
3.9199999999999604 0.0 1.0 2.1116233766888576e-237 0.0
3.92999999999996 0.0 1.0 8.00991899452515e-239 0.0
3.93999999999996 0.0 1.0 3.0081037094277024e-240 0.0
3.9499999999999598 0.0 1.0 1.1184344333296998e-241 0.0
3.9599999999999596 0.0 1.0 4.1170042988404546e-243 0.0
3.9699999999999593 0.0 1.0 1.5003935997025545e-244 0.0
3.979999999999959 0.0 1.0 5.413550598988637e-246 0.0
3.989999999999959 0.0 1.0 5.413550598988637e-246 0.0
0.0 0.01 0.2653606358670049 0.0 0.0
0.01 0.01 0.566333392655242 -4.087454903657506e-07 28.80742937062827
0.02 0.01 0.6988784132141987 -7.729516095975882e-07 23.424620516447042
0.03 0.01 0.7682167450675373 -1.2050811807037038e-06 19.649191186369872
0.04 0.01 0.8094349712334722 -1.7753280263067523e-06 16.965196136863078
0.05 0.01 0.836428934125817 -2.5529095517711813e-06 14.99651624691504
0.060000000000000005 0.01 0.8554468293083652 -3.6206918746526413e-06 13.503310142717826
0.07 0.01 0.8696042223632304 -5.083627783996382e-06 12.335258517193392
0.08 0.01 0.8805954486072245 -7.07578802552175e-06 11.39665241091179
0.09 0.01 0.8894115524415613 -9.767258493479043e-06 10.624895111952354
0.09999999999999999 0.01 0.8966685578557504 -1.3371128953770664e-05 9.97780673803329
0.10999999999999999 0.01 0.9027692858808875 -1.815036287091853e-05 9.426118071747029
0.11999999999999998 0.01 0.9079885520509586 -2.4424067535869995e-05 8.948954214644534
0.12999999999999998 0.01 0.9125206761983631 -3.257246010325263e-05 8.531051355376599
0.13999999999999999 0.01 0.9165073308512802 -4.303962230959927e-05 8.160996496000413
0.15 0.01 0.9200545850680323 -5.633296129123311e-05 7.830085057311798
0.16 0.01 0.9232437326244256 -7.30181676353986e-05 7.531561004912723
0.17 0.01 0.9261383971481582 -9.37084141226906e-05 7.260099645123369
0.18000000000000002 0.01 0.9287893258869292 -0.0001190466026654919 7.0114479787784925
0.19000000000000003 0.01 0.931237701604505 -0.00014967967496485126 6.782169552757057
0.20000000000000004 0.01 0.9335174760468006 -0.0001862243806167585 6.569459945079685
0.21000000000000005 0.01 0.9356570393818626 -0.00022922445916956306 6.371010781561217
0.22000000000000006 0.01 0.9376804270453774 -0.00027909993653059406 6.184907556205858
0.23000000000000007 0.01 0.939608196152168 -0.00033609013461508556 6.009551259902913
0.24000000000000007 0.01 0.9414580602837627 -0.00040019299301814585 5.843596934286759
0.25000000000000006 0.01 0.9432453439504045 -0.0004711043220578882 5.685904369378561
0.26000000000000006 0.01 0.9449833004566616 -0.000548161542439199 5.53549762432345
0.2700000000000001 0.01 0.9466833257112698 -0.0006302971952193194 5.3915310964911525
0.2800000000000001 0.01 0.948355093481636 -0.0007160078979850036 5.253260634185822
0.2900000000000001 0.01 0.9500066332404752 -0.0008033443597422949 5.120018766177757
0.3000000000000001 0.01 0.9516443690817957 -0.000889927455340837 4.991193556395641
0.3100000000000001 0.01 0.9532731364709656 -0.0009729941521150594 4.866210911543515
0.3200000000000001 0.01 0.954896192296877 -0.0010494752882308478 4.744520386926614
0.3300000000000001 0.01 0.9565152324042973 -0.001116104904883812 4.62558465812376
0.34000000000000014 0.01 0.9581304292040232 -0.0011695581856177076 4.50887285774867
0.35000000000000014 0.01 0.9597404998947349 -0.00120661227281273 4.3938579231142985
0.36000000000000015 0.01 0.9613428131948426 -0.0012243215787050732 4.280017971702433
0.37000000000000016 0.01 0.9629335392898384 -0.0012201969730391096 4.166841531839772
0.38000000000000017 0.01 0.9645078440635991 -0.001192376688638531 4.053836226451486
0.3900000000000002 0.01 0.9660601247992097 -0.0011397761725221501 3.9405402636509863
0.4000000000000002 0.01 0.9675842806705512 -0.0010622045796331034 3.8265358577236674
0.4100000000000002 0.01 0.969074007802251 -0.0009604372121304638 3.711463516631016
0.4200000000000002 0.01 0.9705231057602346 -0.0008362358850197225 3.595036013572592
0.4300000000000002 0.01 0.9719257803263506 -0.000692312764648815 3.4770508305094694
0.4400000000000002 0.01 0.973276926523752 -0.0005322373896576261 3.357399932223974
0.45000000000000023 0.01 0.9745723762204445 -0.00036029097398057597 3.2360759011995963
0.46000000000000024 0.01 0.9758090962624801 -0.00018127629639604775 3.1131737257690286
0.47000000000000025 0.01 0.9769853258751672 -2.950920481426067e-07 2.988887865423217
0.48000000000000026 0.01 0.9781006458081142 0.00017749248091228554 2.8635045882271295
0.49000000000000027 0.01 0.9791559760822024 0.0003471102896172217 2.7373899510451345
0.5000000000000002 0.01 0.98015350385323 0.0005039945080574547 2.610974137588333
0.5100000000000002 0.01 0.9810965474398996 0.0006441929467753012 2.484733149011232
0.5200000000000002 0.01 0.981989366587863 0.0007645231714187075 2.3591690306399897
0.5300000000000002 0.01 0.9828369322242125 0.0008626806423560344 2.2347899000411644
0.5400000000000003 0.01 0.9836446710520559 0.000937292207285912 2.1120910112993063
0.5500000000000003 0.01 0.9844182012063601 0.0009879145789097837 1.9915379551966073
0.5600000000000003 0.01 0.9851630748244629 0.0010149815195982035 1.8735528727377058
0.5700000000000003 0.01 0.9858845418786129 0.0010197069675483958 1.7585042760070753
0.5800000000000003 0.01 0.9865873471747726 0.001003953989670054 1.6467007563013458
0.5900000000000003 0.01 0.9872755693154859 0.0009700810597649604 1.5383885464364913
0.6000000000000003 0.01 0.9879525069672648 0.0009207776810970174 1.4337526211008509
0.6100000000000003 0.01 0.9886206142802402 0.0008589008606463119 1.3329207895133224
0.6200000000000003 0.01 0.9892814840653917 0.0007873225564734713 1.235970074261724
0.6300000000000003 0.01 0.9899358745726743 0.0007087961877306984 1.142934586290904
0.6400000000000003 0.01 0.9905837735891402 0.0006258478834985409 1.0538140974997001
0.6500000000000004 0.01 0.9912244921684847 0.0005406956193457996 0.9685825709643052
0.6600000000000004 0.01 0.9918567796150894 0.00045519699041045194 0.8871960207276316
0.6700000000000004 0.01 0.9924789513151115 0.00037082428942149405 0.8095992214201624
0.6800000000000004 0.01 0.9930890215252425 0.00028866392827718275 0.7357309547481569
0.6900000000000004 0.01 0.993684834158471 0.0002094361278381557 0.6655276480894035
0.7000000000000004 0.01 0.9942641857983006 0.00013353020646343237 0.5989254155607399
0.7100000000000004 0.01 0.9948249364880489 6.105067670263142e-05 0.5358606429517719
0.7200000000000004 0.01 0.9953651051595808 -8.130371826629152e-06 0.47626935776296714
0.7300000000000004 0.01 0.9958829477932231 -7.431857108011808e-05 0.42008569104887045
0.7400000000000004 0.01 0.9963770174754988 -0.0001379434924960477 0.36723976907484307
0.7500000000000004 0.01 0.9968462064112086 -0.00019950821959553898 0.3176553729391216
0.7600000000000005 0.01 0.9972897706441463 -0.00025954392349660963 0.27124767822182194
0.7700000000000005 0.01 0.9977073387582676 -0.0003185703836746949 0.22792134048786025
0.7800000000000005 0.01 0.9980989061922401 -0.0003770628146443089 0.1875691326108688
0.7900000000000005 0.01 0.9984648170341011 -0.0004354249224328285 0.15007127279067256
0.8000000000000005 0.01 0.998805735297745 -0.0004939678242224187 0.1152955136328222